/*--------------------------------*- C++ -*----------------------------------*\
| =========                 |                                                 |
| \\      /  F ield         | OpenFOAM: The Open Source CFD Toolbox           |
|  \\    /   O peration     | Version:  v2012                                 |
|   \\  /    A nd           | Website:  www.openfoam.com                      |
|    \\/     M anipulation  |                                                 |
\*---------------------------------------------------------------------------*/
FoamFile
{
    version     2.0;
    format      ascii;
    class       surfaceVectorField;
    location    "0/beamthree";
    object      refWf;
}
// * * * * * * * * * * * * * * * * * * * * * * * * * * * * * * * * * * * * * //

dimensions      [0 1 0 0 0 0 0];


internalField   nonuniform List<vector> 
59
(
(-1.38756 0.415637 -0.491297)
(-1.39012 0.408275 -0.482594)
(-1.39268 0.400912 -0.473891)
(-1.39524 0.393549 -0.465188)
(-1.3978 0.386186 -0.456485)
(-1.40036 0.378824 -0.447782)
(-1.40292 0.371461 -0.439079)
(-1.40548 0.364098 -0.430376)
(-1.40803 0.356736 -0.421673)
(-1.41059 0.349373 -0.41297)
(-1.41315 0.34201 -0.404267)
(-1.41571 0.334647 -0.395564)
(-1.41827 0.327285 -0.386861)
(-1.42083 0.319922 -0.378158)
(-1.42339 0.312559 -0.369455)
(-1.42595 0.305196 -0.360752)
(-1.42851 0.297834 -0.352049)
(-1.43107 0.290471 -0.343346)
(-1.43363 0.283108 -0.334643)
(-1.43619 0.275746 -0.325941)
(-1.43875 0.268383 -0.317237)
(-1.44131 0.26102 -0.308534)
(-1.44387 0.253658 -0.299832)
(-1.44643 0.246295 -0.291128)
(-1.44899 0.238932 -0.282425)
(-1.45154 0.231569 -0.273723)
(-1.4541 0.224207 -0.26502)
(-1.45666 0.216844 -0.256316)
(-1.45922 0.209481 -0.247614)
(-1.46178 0.202118 -0.238911)
(-1.46434 0.194756 -0.230208)
(-1.4669 0.187393 -0.221505)
(-1.46946 0.18003 -0.212802)
(-1.47202 0.172667 -0.204099)
(-1.47458 0.165305 -0.195396)
(-1.47714 0.157942 -0.186693)
(-1.4797 0.150579 -0.17799)
(-1.48226 0.143218 -0.169288)
(-1.48482 0.135854 -0.160584)
(-1.48738 0.12849 -0.15188)
(-1.48994 0.121129 -0.143179)
(-1.4925 0.113766 -0.134475)
(-1.49506 0.106402 -0.125771)
(-1.49761 0.0990412 -0.11707)
(-1.50017 0.0916776 -0.108366)
(-1.50273 0.0843139 -0.0996619)
(-1.50529 0.0769531 -0.0909611)
(-1.50785 0.0695894 -0.082257)
(-1.51041 0.0622258 -0.0735529)
(-1.51297 0.0548649 -0.0648521)
(-1.51553 0.0475013 -0.0561481)
(-1.51809 0.0401376 -0.047444)
(-1.52065 0.0327767 -0.0387432)
(-1.52321 0.0254131 -0.0300391)
(-1.52577 0.0180495 -0.0213351)
(-1.52833 0.0106886 -0.0126343)
(-1.53089 0.00332494 -0.00393019)
(-1.53345 -0.0040387 0.00477388)
(-1.53601 -0.0113996 0.0134747)
)
;

boundaryField
{
    left
    {
        type            calculated;
        value           uniform (-1.385 0.423 -0.5);
    }
    right
    {
        type            calculated;
        value           uniform (-1.53856 -0.0187632 0.0221788);
    }
    beam
    {
        type            empty;
        value           nonuniform List<vector> 0();
    }
}


// ************************************************************************* //
