/*--------------------------------*- C++ -*----------------------------------*\
| =========                 |                                                 |
| \\      /  F ield         | OpenFOAM: The Open Source CFD Toolbox           |
|  \\    /   O peration     | Version:  v2012                                 |
|   \\  /    A nd           | Website:  www.openfoam.com                      |
|    \\/     M anipulation  |                                                 |
\*---------------------------------------------------------------------------*/
FoamFile
{
    version     2.0;
    format      ascii;
    class       pointVectorField;
    location    "0/beamtwo";
    object      pointW;
}
// * * * * * * * * * * * * * * * * * * * * * * * * * * * * * * * * * * * * * //

dimensions      [0 1 0 0 0 0 0];


internalField   nonuniform List<vector> 
1952
(
(-0.000609968 8.83254e-05 0.000107035)
(-0.000696447 0.000100848 0.00012221)
(-0.000756159 0.000109494 0.000132688)
(-0.000786815 0.000113934 0.000138067)
(-0.000787233 0.000113994 0.00013814)
(-0.000757399 0.000109674 0.000132905)
(-0.000698457 0.000101139 0.000122562)
(-0.000612677 8.87177e-05 0.00010751)
(-0.000503348 7.28866e-05 8.83254e-05)
(-0.000374679 5.42548e-05 6.57471e-05)
(-0.000231608 3.35377e-05 4.06416e-05)
(-7.96407e-05 1.15322e-05 1.3975e-05)
(7.53912e-05 -1.09169e-05 -1.32293e-05)
(0.000227526 -3.29466e-05 -3.99253e-05)
(0.000370913 -5.37095e-05 -6.50863e-05)
(0.00050005 -7.2409e-05 -8.77467e-05)
(0.000609968 -8.83254e-05 -0.000107035)
(0.000696447 -0.000100848 -0.00012221)
(0.000756159 -0.000109494 -0.000132688)
(0.000786815 -0.000113934 -0.000138067)
(0.000787233 -0.000113994 -0.00013814)
(0.000757399 -0.000109674 -0.000132905)
(0.000698457 -0.000101139 -0.000122562)
(0.000612677 -8.87177e-05 -0.00010751)
(0.000503348 -7.28866e-05 -8.83254e-05)
(0.000374679 -5.42548e-05 -6.57471e-05)
(0.000231608 -3.35377e-05 -4.06416e-05)
(7.96407e-05 -1.15322e-05 -1.3975e-05)
(-7.53912e-05 1.09169e-05 1.32293e-05)
(-0.000227526 3.29466e-05 3.99253e-05)
(-0.000370913 5.37095e-05 6.50863e-05)
(-0.00050005 7.2409e-05 8.77467e-05)
(-0.00323464 -0.00725447 -0.00879112)
(-0.00332112 -0.00724195 -0.00877594)
(-0.00338083 -0.00723331 -0.00876547)
(-0.00341149 -0.00722887 -0.00876009)
(-0.00341191 -0.00722881 -0.00876001)
(-0.00338207 -0.00723313 -0.00876525)
(-0.00332313 -0.00724166 -0.00877559)
(-0.00323735 -0.00725408 -0.00879064)
(-0.00312802 -0.00726991 -0.00880983)
(-0.00299935 -0.00728854 -0.00883241)
(-0.00285628 -0.00730926 -0.00885751)
(-0.00270431 -0.00733127 -0.00888418)
(-0.00254928 -0.00735372 -0.00891138)
(-0.00239715 -0.00737575 -0.00893808)
(-0.00225376 -0.00739651 -0.00896324)
(-0.00212462 -0.00741521 -0.0089859)
(-0.00201471 -0.00743112 -0.00900519)
(-0.00192823 -0.00744365 -0.00902036)
(-0.00186851 -0.00745229 -0.00903084)
(-0.00183786 -0.00745673 -0.00903622)
(-0.00183744 -0.00745679 -0.00903629)
(-0.00186727 -0.00745247 -0.00903106)
(-0.00192622 -0.00744394 -0.00902072)
(-0.002012 -0.00743152 -0.00900566)
(-0.00212133 -0.00741569 -0.00898648)
(-0.00224999 -0.00739705 -0.0089639)
(-0.00239307 -0.00737634 -0.0089388)
(-0.00254503 -0.00735433 -0.00891213)
(-0.00270006 -0.00733188 -0.00888492)
(-0.0028522 -0.00730985 -0.00885823)
(-0.00299559 -0.00728909 -0.00883307)
(-0.00312472 -0.00727039 -0.00881041)
(-0.0058593 -0.0145972 -0.0176892)
(-0.00594578 -0.0145847 -0.0176741)
(-0.0060055 -0.0145761 -0.0176636)
(-0.00603615 -0.0145716 -0.0176582)
(-0.00603657 -0.0145716 -0.0176581)
(-0.00600674 -0.0145759 -0.0176634)
(-0.00594779 -0.0145844 -0.0176737)
(-0.00586201 -0.0145969 -0.0176888)
(-0.00575269 -0.0146127 -0.0177079)
(-0.00562402 -0.0146313 -0.0177305)
(-0.00548095 -0.014652 -0.0177556)
(-0.00532898 -0.014674 -0.0177823)
(-0.00517395 -0.0146965 -0.0178095)
(-0.00502181 -0.0147185 -0.0178362)
(-0.00487842 -0.0147393 -0.0178614)
(-0.00474929 -0.014758 -0.017884)
(-0.00463937 -0.0147739 -0.0179033)
(-0.00455289 -0.0147864 -0.0179185)
(-0.00449318 -0.0147951 -0.017929)
(-0.00446252 -0.0147995 -0.0179343)
(-0.0044621 -0.0147996 -0.0179344)
(-0.00449194 -0.0147952 -0.0179292)
(-0.00455088 -0.0147867 -0.0179188)
(-0.00463666 -0.0147743 -0.0179038)
(-0.00474599 -0.0147585 -0.0178846)
(-0.00487466 -0.0147398 -0.017862)
(-0.00501773 -0.0147191 -0.0178369)
(-0.0051697 -0.0146971 -0.0178102)
(-0.00532473 -0.0146747 -0.017783)
(-0.00547686 -0.0146526 -0.0177563)
(-0.00562025 -0.0146319 -0.0177312)
(-0.00574939 -0.0146132 -0.0177085)
(-0.00848398 -0.02194 -0.0265874)
(-0.00857046 -0.0219275 -0.0265722)
(-0.00863017 -0.0219189 -0.0265617)
(-0.00866083 -0.0219144 -0.0265564)
(-0.00866124 -0.0219144 -0.0265563)
(-0.00863141 -0.0219187 -0.0265615)
(-0.00857247 -0.0219272 -0.0265719)
(-0.00848669 -0.0219397 -0.0265869)
(-0.00837736 -0.0219555 -0.0266061)
(-0.00824869 -0.0219741 -0.0266287)
(-0.00810562 -0.0219948 -0.0266538)
(-0.00795365 -0.0220168 -0.0266805)
(-0.00779862 -0.0220393 -0.0267077)
(-0.00764648 -0.0220613 -0.0267344)
(-0.0075031 -0.0220821 -0.0267595)
(-0.00737396 -0.0221008 -0.0267822)
(-0.00726404 -0.0221167 -0.0268015)
(-0.00717756 -0.0221292 -0.0268166)
(-0.00711785 -0.0221379 -0.0268271)
(-0.00708719 -0.0221423 -0.0268325)
(-0.00708678 -0.0221424 -0.0268326)
(-0.00711661 -0.022138 -0.0268273)
(-0.00717555 -0.0221295 -0.026817)
(-0.00726133 -0.0221171 -0.0268019)
(-0.00737066 -0.0221013 -0.0267828)
(-0.00749933 -0.0220826 -0.0267602)
(-0.0076424 -0.0220619 -0.0267351)
(-0.00779437 -0.0220399 -0.0267084)
(-0.0079494 -0.0220175 -0.0266812)
(-0.00810154 -0.0219954 -0.0266545)
(-0.00824492 -0.0219747 -0.0266293)
(-0.00837406 -0.021956 -0.0266067)
(-0.0111087 -0.0292829 -0.0354856)
(-0.0111952 -0.0292704 -0.0354705)
(-0.0112549 -0.0292618 -0.03546)
(-0.0112855 -0.0292573 -0.0354546)
(-0.0112859 -0.0292573 -0.0354545)
(-0.0112561 -0.0292616 -0.0354598)
(-0.0111972 -0.0292701 -0.0354701)
(-0.0111114 -0.0292825 -0.0354852)
(-0.0110021 -0.0292984 -0.0355044)
(-0.0108734 -0.029317 -0.0355269)
(-0.0107303 -0.0293377 -0.035552)
(-0.0105784 -0.0293597 -0.0355787)
(-0.0104233 -0.0293822 -0.0356059)
(-0.0102712 -0.0294042 -0.0356326)
(-0.0101278 -0.029425 -0.0356578)
(-0.00999866 -0.0294437 -0.0356804)
(-0.00988875 -0.0294596 -0.0356997)
(-0.00980227 -0.0294721 -0.0357149)
(-0.00974255 -0.0294807 -0.0357254)
(-0.0097119 -0.0294852 -0.0357307)
(-0.00971148 -0.0294852 -0.0357308)
(-0.00974131 -0.0294809 -0.0357256)
(-0.00980026 -0.0294724 -0.0357152)
(-0.00988604 -0.02946 -0.0357002)
(-0.00999536 -0.0294441 -0.035681)
(-0.010124 -0.0294255 -0.0356584)
(-0.0102671 -0.0294048 -0.0356333)
(-0.0104191 -0.0293828 -0.0356067)
(-0.0105741 -0.0293603 -0.0355795)
(-0.0107262 -0.0293383 -0.0355528)
(-0.0108696 -0.0293175 -0.0355276)
(-0.0109988 -0.0292988 -0.0355049)
(-0.0137333 -0.0366255 -0.0443836)
(-0.0138198 -0.036613 -0.0443684)
(-0.0138795 -0.0366044 -0.0443579)
(-0.0139101 -0.0365999 -0.0443525)
(-0.0139106 -0.0365999 -0.0443525)
(-0.0138807 -0.0366042 -0.0443577)
(-0.0138218 -0.0366127 -0.044368)
(-0.013736 -0.0366251 -0.0443831)
(-0.0136267 -0.036641 -0.0444023)
(-0.013498 -0.0366596 -0.0444249)
(-0.0133549 -0.0366803 -0.04445)
(-0.013203 -0.0367023 -0.0444766)
(-0.0130479 -0.0367248 -0.0445038)
(-0.0128958 -0.0367468 -0.0445305)
(-0.0127524 -0.0367676 -0.0445557)
(-0.0126233 -0.0367863 -0.0445783)
(-0.0125133 -0.0368022 -0.0445976)
(-0.0124269 -0.0368147 -0.0446128)
(-0.0123672 -0.0368234 -0.0446233)
(-0.0123365 -0.0368278 -0.0446287)
(-0.0123361 -0.0368279 -0.0446287)
(-0.0123659 -0.0368235 -0.0446235)
(-0.0124249 -0.036815 -0.0446132)
(-0.0125106 -0.0368026 -0.0445981)
(-0.01262 -0.0367867 -0.0445789)
(-0.0127486 -0.0367681 -0.0445563)
(-0.0128917 -0.0367474 -0.0445312)
(-0.0130437 -0.0367254 -0.0445046)
(-0.0131987 -0.0367029 -0.0444774)
(-0.0133508 -0.0366809 -0.0444507)
(-0.0134942 -0.0366602 -0.0444255)
(-0.0136234 -0.0366415 -0.0444029)
(-0.016358 -0.0439684 -0.0532818)
(-0.0164445 -0.0439559 -0.0532666)
(-0.0165042 -0.0439472 -0.0532562)
(-0.0165348 -0.0439428 -0.0532508)
(-0.0165353 -0.0439427 -0.0532507)
(-0.0165054 -0.0439471 -0.053256)
(-0.0164465 -0.0439556 -0.0532663)
(-0.0163607 -0.043968 -0.0532813)
(-0.0162514 -0.0439839 -0.0533005)
(-0.0161227 -0.0440025 -0.0533231)
(-0.0159796 -0.0440232 -0.0533482)
(-0.0158277 -0.0440452 -0.0533749)
(-0.0156726 -0.0440677 -0.0534021)
(-0.0155205 -0.0440897 -0.0534288)
(-0.0153771 -0.0441105 -0.0534539)
(-0.015248 -0.0441292 -0.0534766)
(-0.0151381 -0.0441451 -0.0534959)
(-0.0150516 -0.0441576 -0.0535111)
(-0.0149919 -0.0441662 -0.0535215)
(-0.0149612 -0.0441707 -0.0535269)
(-0.0149608 -0.0441707 -0.053527)
(-0.0149906 -0.0441664 -0.0535218)
(-0.0150496 -0.0441579 -0.0535114)
(-0.0151353 -0.0441455 -0.0534964)
(-0.0152447 -0.0441296 -0.0534772)
(-0.0153733 -0.044111 -0.0534546)
(-0.0155164 -0.0440903 -0.0534295)
(-0.0156684 -0.0440683 -0.0534028)
(-0.0158234 -0.0440458 -0.0533756)
(-0.0159755 -0.0440238 -0.0533489)
(-0.0161189 -0.044003 -0.0533238)
(-0.0162481 -0.0439843 -0.0533011)
(-0.0189827 -0.0513113 -0.0621801)
(-0.0190692 -0.0512988 -0.0621649)
(-0.0191289 -0.0512901 -0.0621544)
(-0.0191595 -0.0512857 -0.062149)
(-0.01916 -0.0512856 -0.062149)
(-0.0191301 -0.0512899 -0.0621542)
(-0.0190712 -0.0512985 -0.0621645)
(-0.0189854 -0.0513109 -0.0621796)
(-0.0188761 -0.0513267 -0.0621988)
(-0.0187474 -0.0513454 -0.0622214)
(-0.0186043 -0.0513661 -0.0622465)
(-0.0184524 -0.0513881 -0.0622731)
(-0.0182973 -0.0514105 -0.0623003)
(-0.0181452 -0.0514326 -0.062327)
(-0.0180018 -0.0514533 -0.0623522)
(-0.0178727 -0.051472 -0.0623749)
(-0.0177628 -0.0514879 -0.0623941)
(-0.0176763 -0.0515005 -0.0624093)
(-0.0176166 -0.0515091 -0.0624198)
(-0.0175859 -0.0515136 -0.0624252)
(-0.0175855 -0.0515136 -0.0624252)
(-0.0176153 -0.0515093 -0.06242)
(-0.0176743 -0.0515008 -0.0624097)
(-0.01776 -0.0514883 -0.0623946)
(-0.0178694 -0.0514725 -0.0623754)
(-0.017998 -0.0514539 -0.0623529)
(-0.0181411 -0.0514332 -0.0623278)
(-0.0182931 -0.0514112 -0.0623011)
(-0.0184481 -0.0513887 -0.0622739)
(-0.0186002 -0.0513667 -0.0622472)
(-0.0187436 -0.0513459 -0.062222)
(-0.0188728 -0.0513272 -0.0621994)
(-0.0216073 -0.0586539 -0.071078)
(-0.0216938 -0.0586414 -0.0710628)
(-0.0217535 -0.0586327 -0.0710523)
(-0.0217841 -0.0586283 -0.071047)
(-0.0217846 -0.0586282 -0.0710469)
(-0.0217547 -0.0586326 -0.0710521)
(-0.0216958 -0.0586411 -0.0710625)
(-0.02161 -0.0586535 -0.0710775)
(-0.0215007 -0.0586693 -0.0710967)
(-0.021372 -0.058688 -0.0711193)
(-0.0212289 -0.0587087 -0.0711444)
(-0.021077 -0.0587307 -0.0711711)
(-0.0209219 -0.0587531 -0.0711983)
(-0.0207698 -0.0587752 -0.071225)
(-0.0206264 -0.0587959 -0.0712501)
(-0.0204973 -0.0588146 -0.0712728)
(-0.0203874 -0.0588306 -0.0712921)
(-0.0203009 -0.0588431 -0.0713072)
(-0.0202412 -0.0588517 -0.0713177)
(-0.0202105 -0.0588562 -0.0713231)
(-0.0202101 -0.0588562 -0.0713232)
(-0.0202399 -0.0588519 -0.0713179)
(-0.0202989 -0.0588434 -0.0713076)
(-0.0203847 -0.0588309 -0.0712925)
(-0.020494 -0.0588151 -0.0712734)
(-0.0206226 -0.0587965 -0.0712508)
(-0.0207657 -0.0587758 -0.0712257)
(-0.0209177 -0.0587538 -0.071199)
(-0.0210727 -0.0587313 -0.0711718)
(-0.0212249 -0.0587093 -0.0711451)
(-0.0213682 -0.0586885 -0.0711199)
(-0.0214974 -0.0586698 -0.0710973)
(-0.024232 -0.0659968 -0.0799762)
(-0.0243185 -0.0659843 -0.0799611)
(-0.0243782 -0.0659756 -0.0799506)
(-0.0244088 -0.0659712 -0.0799452)
(-0.0244093 -0.0659711 -0.0799451)
(-0.0243794 -0.0659754 -0.0799504)
(-0.0243205 -0.065984 -0.0799607)
(-0.0242347 -0.0659964 -0.0799758)
(-0.0241254 -0.0660122 -0.079995)
(-0.0239967 -0.0660309 -0.0800175)
(-0.0238536 -0.0660516 -0.0800426)
(-0.0237017 -0.0660736 -0.0800693)
(-0.0235466 -0.066096 -0.0800965)
(-0.0233945 -0.0661181 -0.0801232)
(-0.0232511 -0.0661388 -0.0801484)
(-0.023122 -0.0661575 -0.080171)
(-0.0230121 -0.0661734 -0.0801903)
(-0.0229256 -0.066186 -0.0802055)
(-0.0228659 -0.0661946 -0.080216)
(-0.0228352 -0.066199 -0.0802214)
(-0.0228348 -0.0661991 -0.0802214)
(-0.0228646 -0.0661948 -0.0802162)
(-0.0229236 -0.0661863 -0.0802058)
(-0.0230094 -0.0661738 -0.0801908)
(-0.0231187 -0.066158 -0.0801716)
(-0.0232474 -0.0661394 -0.080149)
(-0.0233904 -0.0661187 -0.0801239)
(-0.0235424 -0.0660966 -0.0800973)
(-0.0236974 -0.0660742 -0.0800701)
(-0.0238496 -0.0660522 -0.0800434)
(-0.0239929 -0.0660314 -0.0800182)
(-0.0241221 -0.0660127 -0.0799955)
(-0.0268567 -0.0733397 -0.0888745)
(-0.0269432 -0.0733271 -0.0888593)
(-0.0270029 -0.0733185 -0.0888488)
(-0.0270335 -0.0733141 -0.0888435)
(-0.027034 -0.073314 -0.0888434)
(-0.0270041 -0.0733183 -0.0888486)
(-0.0269452 -0.0733269 -0.088859)
(-0.0268594 -0.0733393 -0.088874)
(-0.0267501 -0.0733551 -0.0888932)
(-0.0266214 -0.0733737 -0.0889158)
(-0.0264783 -0.0733945 -0.0889409)
(-0.0263264 -0.0734165 -0.0889676)
(-0.0261713 -0.0734389 -0.0889948)
(-0.0260192 -0.0734609 -0.0890215)
(-0.0258758 -0.0734817 -0.0890466)
(-0.0257467 -0.0735004 -0.0890693)
(-0.0256368 -0.0735163 -0.0890886)
(-0.0255503 -0.0735288 -0.0891037)
(-0.0254906 -0.0735375 -0.0891142)
(-0.0254599 -0.0735419 -0.0891196)
(-0.0254595 -0.073542 -0.0891197)
(-0.0254893 -0.0735377 -0.0891144)
(-0.0255483 -0.0735291 -0.0891041)
(-0.0256341 -0.0735167 -0.089089)
(-0.0257434 -0.0735009 -0.0890699)
(-0.0258721 -0.0734822 -0.0890473)
(-0.0260151 -0.0734615 -0.0890222)
(-0.0261671 -0.0734395 -0.0889955)
(-0.0263221 -0.0734171 -0.0889683)
(-0.0264743 -0.073395 -0.0889416)
(-0.0266176 -0.0733743 -0.0889165)
(-0.0267468 -0.0733556 -0.0888938)
(-0.0294813 -0.0806823 -0.0977724)
(-0.0295678 -0.0806698 -0.0977572)
(-0.0296275 -0.0806611 -0.0977468)
(-0.0296582 -0.0806567 -0.0977414)
(-0.0296586 -0.0806566 -0.0977413)
(-0.0296287 -0.0806609 -0.0977466)
(-0.0295698 -0.0806695 -0.0977569)
(-0.029484 -0.0806819 -0.0977719)
(-0.0293747 -0.0806977 -0.0977911)
(-0.029246 -0.0807163 -0.0978137)
(-0.0291029 -0.0807371 -0.0978388)
(-0.028951 -0.0807591 -0.0978655)
(-0.0287959 -0.0807815 -0.0978927)
(-0.0286438 -0.0808035 -0.0979194)
(-0.0285004 -0.0808243 -0.0979445)
(-0.0283713 -0.080843 -0.0979672)
(-0.0282614 -0.0808589 -0.0979865)
(-0.0281749 -0.0808714 -0.0980017)
(-0.0281152 -0.0808801 -0.0980121)
(-0.0280845 -0.0808845 -0.0980175)
(-0.0280841 -0.0808846 -0.0980176)
(-0.0281139 -0.0808803 -0.0980124)
(-0.0281729 -0.0808717 -0.098002)
(-0.0282587 -0.0808593 -0.097987)
(-0.028368 -0.0808435 -0.0979678)
(-0.0284967 -0.0808249 -0.0979452)
(-0.0286397 -0.0808041 -0.0979201)
(-0.0287917 -0.0807821 -0.0978934)
(-0.0289467 -0.0807597 -0.0978662)
(-0.0290989 -0.0807377 -0.0978395)
(-0.0292423 -0.0807169 -0.0978144)
(-0.0293714 -0.0806982 -0.0977917)
(-0.032106 -0.0880252 -0.106671)
(-0.0321925 -0.0880126 -0.106656)
(-0.0322522 -0.088004 -0.106645)
(-0.0322829 -0.0879995 -0.10664)
(-0.0322833 -0.0879995 -0.10664)
(-0.0322534 -0.0880038 -0.106645)
(-0.0321945 -0.0880123 -0.106655)
(-0.0321087 -0.0880248 -0.10667)
(-0.0319994 -0.0880406 -0.106689)
(-0.0318707 -0.0880592 -0.106712)
(-0.0317276 -0.0880799 -0.106737)
(-0.0315757 -0.088102 -0.106764)
(-0.0314206 -0.0881244 -0.106791)
(-0.0312685 -0.0881464 -0.106818)
(-0.0311251 -0.0881672 -0.106843)
(-0.030996 -0.0881859 -0.106865)
(-0.0308861 -0.0882018 -0.106885)
(-0.0307996 -0.0882143 -0.1069)
(-0.0307399 -0.088223 -0.10691)
(-0.0307092 -0.0882274 -0.106916)
(-0.0307088 -0.0882275 -0.106916)
(-0.0307386 -0.0882232 -0.106911)
(-0.0307976 -0.0882146 -0.1069)
(-0.0308834 -0.0882022 -0.106885)
(-0.0309927 -0.0881864 -0.106866)
(-0.0311214 -0.0881677 -0.106843)
(-0.0312644 -0.088147 -0.106818)
(-0.0314164 -0.088125 -0.106792)
(-0.0315714 -0.0881026 -0.106764)
(-0.0317236 -0.0880805 -0.106738)
(-0.031867 -0.0880598 -0.106713)
(-0.0319961 -0.0880411 -0.10669)
(-0.0347307 -0.095368 -0.115569)
(-0.0348172 -0.0953555 -0.115554)
(-0.0348769 -0.0953469 -0.115543)
(-0.0349076 -0.0953424 -0.115538)
(-0.034908 -0.0953424 -0.115538)
(-0.0348781 -0.0953467 -0.115543)
(-0.0348192 -0.0953552 -0.115553)
(-0.0347334 -0.0953676 -0.115568)
(-0.0346241 -0.0953835 -0.115588)
(-0.0344954 -0.0954021 -0.11561)
(-0.0343524 -0.0954228 -0.115635)
(-0.0342004 -0.0954448 -0.115662)
(-0.0340454 -0.0954673 -0.115689)
(-0.0338932 -0.0954893 -0.115716)
(-0.0337498 -0.0955101 -0.115741)
(-0.0336207 -0.0955288 -0.115764)
(-0.0335108 -0.0955447 -0.115783)
(-0.0334243 -0.0955572 -0.115798)
(-0.0333646 -0.0955659 -0.115809)
(-0.0333339 -0.0955703 -0.115814)
(-0.0333335 -0.0955704 -0.115814)
(-0.0333633 -0.095566 -0.115809)
(-0.0334223 -0.0955575 -0.115799)
(-0.0335081 -0.0955451 -0.115783)
(-0.0336174 -0.0955293 -0.115764)
(-0.0337461 -0.0955106 -0.115742)
(-0.0338891 -0.0954899 -0.115717)
(-0.0340411 -0.0954679 -0.11569)
(-0.0341961 -0.0954454 -0.115663)
(-0.0343483 -0.0954234 -0.115636)
(-0.0344917 -0.0954027 -0.115611)
(-0.0346208 -0.095384 -0.115588)
(-0.0373553 -0.102711 -0.124467)
(-0.0374418 -0.102698 -0.124452)
(-0.0375015 -0.102689 -0.124441)
(-0.0375322 -0.102685 -0.124436)
(-0.0375326 -0.102685 -0.124436)
(-0.0375027 -0.102689 -0.124441)
(-0.0374438 -0.102698 -0.124451)
(-0.037358 -0.10271 -0.124466)
(-0.0372487 -0.102726 -0.124486)
(-0.03712 -0.102745 -0.124508)
(-0.036977 -0.102765 -0.124533)
(-0.036825 -0.102787 -0.12456)
(-0.03667 -0.10281 -0.124587)
(-0.0365178 -0.102832 -0.124614)
(-0.0363744 -0.102853 -0.124639)
(-0.0362453 -0.102871 -0.124662)
(-0.0361354 -0.102887 -0.124681)
(-0.0360489 -0.1029 -0.124696)
(-0.0359892 -0.102908 -0.124707)
(-0.0359585 -0.102913 -0.124712)
(-0.0359581 -0.102913 -0.124712)
(-0.0359879 -0.102909 -0.124707)
(-0.0360469 -0.1029 -0.124696)
(-0.0361327 -0.102888 -0.124681)
(-0.036242 -0.102872 -0.124662)
(-0.0363707 -0.102853 -0.12464)
(-0.0365137 -0.102833 -0.124615)
(-0.0366657 -0.102811 -0.124588)
(-0.0368207 -0.102788 -0.124561)
(-0.0369729 -0.102766 -0.124534)
(-0.0371163 -0.102745 -0.124509)
(-0.0372454 -0.102727 -0.124486)
(-0.03998 -0.110054 -0.133365)
(-0.0400665 -0.110041 -0.13335)
(-0.0401262 -0.110032 -0.133339)
(-0.0401569 -0.110028 -0.133334)
(-0.0401573 -0.110028 -0.133334)
(-0.0401274 -0.110032 -0.133339)
(-0.0400685 -0.110041 -0.13335)
(-0.0399827 -0.110053 -0.133365)
(-0.0398734 -0.110069 -0.133384)
(-0.0397447 -0.110088 -0.133406)
(-0.0396017 -0.110108 -0.133431)
(-0.0394497 -0.11013 -0.133458)
(-0.0392947 -0.110153 -0.133485)
(-0.0391425 -0.110175 -0.133512)
(-0.0389991 -0.110196 -0.133537)
(-0.03887 -0.110214 -0.13356)
(-0.0387601 -0.11023 -0.133579)
(-0.0386736 -0.110243 -0.133594)
(-0.0386139 -0.110251 -0.133605)
(-0.0385832 -0.110256 -0.13361)
(-0.0385828 -0.110256 -0.13361)
(-0.0386127 -0.110252 -0.133605)
(-0.0386716 -0.110243 -0.133595)
(-0.0387574 -0.110231 -0.13358)
(-0.0388667 -0.110215 -0.13356)
(-0.0389954 -0.110196 -0.133538)
(-0.0391384 -0.110175 -0.133513)
(-0.0392904 -0.110153 -0.133486)
(-0.0394454 -0.110131 -0.133459)
(-0.0395976 -0.110109 -0.133432)
(-0.039741 -0.110088 -0.133407)
(-0.0398701 -0.110069 -0.133384)
(-0.0426047 -0.117396 -0.142263)
(-0.0426912 -0.117384 -0.142248)
(-0.0427509 -0.117375 -0.142238)
(-0.0427816 -0.117371 -0.142232)
(-0.042782 -0.117371 -0.142232)
(-0.0427522 -0.117375 -0.142237)
(-0.0426932 -0.117384 -0.142248)
(-0.0426074 -0.117396 -0.142263)
(-0.0424981 -0.117412 -0.142282)
(-0.0423694 -0.11743 -0.142305)
(-0.0422264 -0.117451 -0.14233)
(-0.0420744 -0.117473 -0.142356)
(-0.0419194 -0.117496 -0.142384)
(-0.0417672 -0.117518 -0.14241)
(-0.0416238 -0.117538 -0.142435)
(-0.0414947 -0.117557 -0.142458)
(-0.0413848 -0.117573 -0.142477)
(-0.0412983 -0.117586 -0.142493)
(-0.0412386 -0.117594 -0.142503)
(-0.0412079 -0.117599 -0.142508)
(-0.0412075 -0.117599 -0.142509)
(-0.0412374 -0.117594 -0.142503)
(-0.0412963 -0.117586 -0.142493)
(-0.0413821 -0.117573 -0.142478)
(-0.0414914 -0.117558 -0.142459)
(-0.0416201 -0.117539 -0.142436)
(-0.0417631 -0.117518 -0.142411)
(-0.0419151 -0.117496 -0.142384)
(-0.0420701 -0.117474 -0.142357)
(-0.0422223 -0.117452 -0.14233)
(-0.0423657 -0.117431 -0.142305)
(-0.0424948 -0.117412 -0.142283)
(-0.0452293 -0.124739 -0.151161)
(-0.0453158 -0.124726 -0.151146)
(-0.0453755 -0.124718 -0.151136)
(-0.0454062 -0.124713 -0.15113)
(-0.0454066 -0.124713 -0.15113)
(-0.0453768 -0.124718 -0.151135)
(-0.0453178 -0.124726 -0.151146)
(-0.045232 -0.124739 -0.151161)
(-0.0451227 -0.124754 -0.15118)
(-0.044994 -0.124773 -0.151203)
(-0.044851 -0.124794 -0.151228)
(-0.044699 -0.124816 -0.151254)
(-0.044544 -0.124838 -0.151282)
(-0.0443918 -0.12486 -0.151308)
(-0.0442484 -0.124881 -0.151333)
(-0.0441193 -0.1249 -0.151356)
(-0.0440094 -0.124916 -0.151375)
(-0.0439229 -0.124928 -0.151391)
(-0.0438632 -0.124937 -0.151401)
(-0.0438325 -0.124941 -0.151406)
(-0.0438321 -0.124941 -0.151406)
(-0.043862 -0.124937 -0.151401)
(-0.0439209 -0.124928 -0.151391)
(-0.0440067 -0.124916 -0.151376)
(-0.044116 -0.1249 -0.151357)
(-0.0442447 -0.124882 -0.151334)
(-0.0443878 -0.124861 -0.151309)
(-0.0445397 -0.124839 -0.151282)
(-0.0446947 -0.124816 -0.151255)
(-0.0448469 -0.124794 -0.151228)
(-0.0449903 -0.124774 -0.151203)
(-0.0451194 -0.124755 -0.151181)
(-0.047854 -0.132082 -0.16006)
(-0.0479405 -0.132069 -0.160044)
(-0.0480002 -0.132061 -0.160034)
(-0.0480309 -0.132056 -0.160028)
(-0.0480313 -0.132056 -0.160028)
(-0.0480015 -0.132061 -0.160034)
(-0.0479425 -0.132069 -0.160044)
(-0.0478567 -0.132082 -0.160059)
(-0.0477474 -0.132097 -0.160078)
(-0.0476187 -0.132116 -0.160101)
(-0.0474757 -0.132137 -0.160126)
(-0.0473237 -0.132159 -0.160153)
(-0.0471687 -0.132181 -0.16018)
(-0.0470165 -0.132203 -0.160206)
(-0.0468731 -0.132224 -0.160232)
(-0.046744 -0.132243 -0.160254)
(-0.0466341 -0.132259 -0.160274)
(-0.0465476 -0.132271 -0.160289)
(-0.0464879 -0.13228 -0.160299)
(-0.0464572 -0.132284 -0.160305)
(-0.0464568 -0.132284 -0.160305)
(-0.0464867 -0.13228 -0.160299)
(-0.0465456 -0.132271 -0.160289)
(-0.0466314 -0.132259 -0.160274)
(-0.0467407 -0.132243 -0.160255)
(-0.0468694 -0.132224 -0.160232)
(-0.0470125 -0.132204 -0.160207)
(-0.0471644 -0.132182 -0.160181)
(-0.0473195 -0.132159 -0.160153)
(-0.0474716 -0.132137 -0.160127)
(-0.047615 -0.132117 -0.160101)
(-0.0477441 -0.132098 -0.160079)
(-0.0504787 -0.139425 -0.168958)
(-0.0505652 -0.139412 -0.168943)
(-0.0506249 -0.139404 -0.168932)
(-0.0506556 -0.139399 -0.168927)
(-0.050656 -0.139399 -0.168927)
(-0.0506262 -0.139403 -0.168932)
(-0.0505672 -0.139412 -0.168942)
(-0.0504814 -0.139424 -0.168957)
(-0.0503721 -0.13944 -0.168976)
(-0.0502434 -0.139459 -0.168999)
(-0.0501004 -0.13948 -0.169024)
(-0.0499484 -0.139502 -0.169051)
(-0.0497934 -0.139524 -0.169078)
(-0.0496412 -0.139546 -0.169105)
(-0.0494979 -0.139567 -0.16913)
(-0.0493687 -0.139586 -0.169153)
(-0.0492588 -0.139601 -0.169172)
(-0.0491723 -0.139614 -0.169187)
(-0.0491126 -0.139623 -0.169198)
(-0.0490819 -0.139627 -0.169203)
(-0.0490815 -0.139627 -0.169203)
(-0.0491114 -0.139623 -0.169198)
(-0.0491703 -0.139614 -0.169187)
(-0.0492561 -0.139602 -0.169172)
(-0.0493654 -0.139586 -0.169153)
(-0.0494941 -0.139567 -0.169131)
(-0.0496372 -0.139547 -0.169105)
(-0.0497891 -0.139525 -0.169079)
(-0.0499442 -0.139502 -0.169052)
(-0.0500963 -0.13948 -0.169025)
(-0.0502397 -0.139459 -0.169)
(-0.0503688 -0.139441 -0.168977)
(-0.0531033 -0.146767 -0.177856)
(-0.0531898 -0.146755 -0.177841)
(-0.0532495 -0.146746 -0.17783)
(-0.0532802 -0.146742 -0.177825)
(-0.0532806 -0.146742 -0.177825)
(-0.0532508 -0.146746 -0.17783)
(-0.0531918 -0.146755 -0.17784)
(-0.053106 -0.146767 -0.177855)
(-0.0529967 -0.146783 -0.177874)
(-0.052868 -0.146801 -0.177897)
(-0.052725 -0.146822 -0.177922)
(-0.052573 -0.146844 -0.177949)
(-0.052418 -0.146867 -0.177976)
(-0.0522658 -0.146889 -0.178003)
(-0.0521225 -0.146909 -0.178028)
(-0.0519933 -0.146928 -0.17805)
(-0.0518834 -0.146944 -0.17807)
(-0.0517969 -0.146957 -0.178085)
(-0.0517372 -0.146965 -0.178095)
(-0.0517066 -0.14697 -0.178101)
(-0.0517061 -0.14697 -0.178101)
(-0.051736 -0.146965 -0.178096)
(-0.0517949 -0.146957 -0.178085)
(-0.0518807 -0.146944 -0.17807)
(-0.05199 -0.146929 -0.178051)
(-0.0521187 -0.14691 -0.178028)
(-0.0522618 -0.146889 -0.178003)
(-0.0524137 -0.146867 -0.177977)
(-0.0525688 -0.146845 -0.17795)
(-0.0527209 -0.146823 -0.177923)
(-0.0528643 -0.146802 -0.177898)
(-0.0529934 -0.146783 -0.177875)
(-0.055728 -0.15411 -0.186754)
(-0.0558145 -0.154098 -0.186739)
(-0.0558742 -0.154089 -0.186728)
(-0.0559049 -0.154085 -0.186723)
(-0.0559053 -0.154085 -0.186723)
(-0.0558755 -0.154089 -0.186728)
(-0.0558165 -0.154097 -0.186738)
(-0.0557307 -0.15411 -0.186753)
(-0.0556214 -0.154126 -0.186773)
(-0.0554928 -0.154144 -0.186795)
(-0.0553497 -0.154165 -0.18682)
(-0.0551977 -0.154187 -0.186847)
(-0.0550427 -0.15421 -0.186874)
(-0.0548905 -0.154232 -0.186901)
(-0.0547472 -0.154252 -0.186926)
(-0.054618 -0.154271 -0.186949)
(-0.0545081 -0.154287 -0.186968)
(-0.0544216 -0.154299 -0.186983)
(-0.0543619 -0.154308 -0.186994)
(-0.0543313 -0.154313 -0.186999)
(-0.0543308 -0.154313 -0.186999)
(-0.0543607 -0.154308 -0.186994)
(-0.0544196 -0.1543 -0.186984)
(-0.0545054 -0.154287 -0.186969)
(-0.0546147 -0.154271 -0.186949)
(-0.0547434 -0.154253 -0.186927)
(-0.0548865 -0.154232 -0.186902)
(-0.0550384 -0.15421 -0.186875)
(-0.0551935 -0.154188 -0.186848)
(-0.0553456 -0.154166 -0.186821)
(-0.055489 -0.154145 -0.186796)
(-0.0556181 -0.154126 -0.186773)
(-0.0583527 -0.161453 -0.195652)
(-0.0584392 -0.161441 -0.195637)
(-0.0584989 -0.161432 -0.195627)
(-0.0585296 -0.161428 -0.195621)
(-0.05853 -0.161427 -0.195621)
(-0.0585002 -0.161432 -0.195626)
(-0.0584412 -0.16144 -0.195637)
(-0.0583555 -0.161453 -0.195652)
(-0.0582461 -0.161469 -0.195671)
(-0.0581175 -0.161487 -0.195694)
(-0.0579744 -0.161508 -0.195719)
(-0.0578224 -0.16153 -0.195745)
(-0.0576674 -0.161552 -0.195772)
(-0.0575152 -0.161574 -0.195799)
(-0.0573719 -0.161595 -0.195824)
(-0.0572427 -0.161614 -0.195847)
(-0.0571328 -0.16163 -0.195866)
(-0.0570463 -0.161642 -0.195881)
(-0.0569866 -0.161651 -0.195892)
(-0.056956 -0.161655 -0.195897)
(-0.0569555 -0.161655 -0.195897)
(-0.0569854 -0.161651 -0.195892)
(-0.0570443 -0.161643 -0.195882)
(-0.0571301 -0.16163 -0.195867)
(-0.0572394 -0.161614 -0.195848)
(-0.0573681 -0.161596 -0.195825)
(-0.0575112 -0.161575 -0.1958)
(-0.0576631 -0.161553 -0.195773)
(-0.0578182 -0.161531 -0.195746)
(-0.0579703 -0.161509 -0.195719)
(-0.0581137 -0.161488 -0.195694)
(-0.0582428 -0.161469 -0.195672)
(-0.0609773 -0.168796 -0.20455)
(-0.0610638 -0.168783 -0.204535)
(-0.0611235 -0.168775 -0.204524)
(-0.0611542 -0.16877 -0.204519)
(-0.0611546 -0.16877 -0.204519)
(-0.0611248 -0.168774 -0.204524)
(-0.0610658 -0.168783 -0.204535)
(-0.0609801 -0.168795 -0.20455)
(-0.0608707 -0.168811 -0.204569)
(-0.0607421 -0.16883 -0.204591)
(-0.060599 -0.168851 -0.204617)
(-0.060447 -0.168873 -0.204643)
(-0.060292 -0.168895 -0.20467)
(-0.0601399 -0.168917 -0.204697)
(-0.0599965 -0.168938 -0.204722)
(-0.0598673 -0.168956 -0.204745)
(-0.0597574 -0.168972 -0.204764)
(-0.0596709 -0.168985 -0.204779)
(-0.0596112 -0.168994 -0.20479)
(-0.0595806 -0.168998 -0.204795)
(-0.0595801 -0.168998 -0.204795)
(-0.05961 -0.168994 -0.20479)
(-0.0596689 -0.168985 -0.20478)
(-0.0597547 -0.168973 -0.204765)
(-0.059864 -0.168957 -0.204745)
(-0.0599927 -0.168938 -0.204723)
(-0.0601358 -0.168918 -0.204698)
(-0.0602877 -0.168896 -0.204671)
(-0.0604428 -0.168873 -0.204644)
(-0.0605949 -0.168851 -0.204617)
(-0.0607383 -0.16883 -0.204592)
(-0.0608674 -0.168812 -0.204569)
(-0.063602 -0.176139 -0.213448)
(-0.0636885 -0.176126 -0.213433)
(-0.0637482 -0.176117 -0.213423)
(-0.0637789 -0.176113 -0.213417)
(-0.0637793 -0.176113 -0.213417)
(-0.0637495 -0.176117 -0.213423)
(-0.0636905 -0.176126 -0.213433)
(-0.0636048 -0.176138 -0.213448)
(-0.0634954 -0.176154 -0.213467)
(-0.0633668 -0.176173 -0.21349)
(-0.0632237 -0.176193 -0.213515)
(-0.0630717 -0.176215 -0.213541)
(-0.0629167 -0.176238 -0.213569)
(-0.0627646 -0.17626 -0.213595)
(-0.0626212 -0.176281 -0.213621)
(-0.062492 -0.176299 -0.213643)
(-0.0623821 -0.176315 -0.213662)
(-0.0622956 -0.176328 -0.213678)
(-0.0622359 -0.176336 -0.213688)
(-0.0622053 -0.176341 -0.213693)
(-0.0622048 -0.176341 -0.213694)
(-0.0622347 -0.176337 -0.213688)
(-0.0622936 -0.176328 -0.213678)
(-0.0623794 -0.176316 -0.213663)
(-0.0624887 -0.1763 -0.213644)
(-0.0626174 -0.176281 -0.213621)
(-0.0627605 -0.176261 -0.213596)
(-0.0629124 -0.176238 -0.213569)
(-0.0630675 -0.176216 -0.213542)
(-0.0632196 -0.176194 -0.213515)
(-0.063363 -0.176173 -0.21349)
(-0.0634921 -0.176155 -0.213468)
(-0.0662268 -0.183482 -0.222347)
(-0.0663132 -0.183469 -0.222331)
(-0.0663729 -0.18346 -0.222321)
(-0.0664036 -0.183456 -0.222316)
(-0.066404 -0.183456 -0.222316)
(-0.0663742 -0.18346 -0.222321)
(-0.0663152 -0.183469 -0.222331)
(-0.0662295 -0.183481 -0.222346)
(-0.0661201 -0.183497 -0.222365)
(-0.0659915 -0.183516 -0.222388)
(-0.0658484 -0.183536 -0.222413)
(-0.0656964 -0.183558 -0.22244)
(-0.0655414 -0.183581 -0.222467)
(-0.0653893 -0.183603 -0.222494)
(-0.0652459 -0.183624 -0.222519)
(-0.0651167 -0.183642 -0.222541)
(-0.0650068 -0.183658 -0.222561)
(-0.0649203 -0.183671 -0.222576)
(-0.0648606 -0.183679 -0.222586)
(-0.06483 -0.183684 -0.222592)
(-0.0648296 -0.183684 -0.222592)
(-0.0648594 -0.18368 -0.222587)
(-0.0649183 -0.183671 -0.222576)
(-0.0650041 -0.183659 -0.222561)
(-0.0651134 -0.183643 -0.222542)
(-0.0652421 -0.183624 -0.222519)
(-0.0653852 -0.183603 -0.222494)
(-0.0655371 -0.183581 -0.222468)
(-0.0656922 -0.183559 -0.22244)
(-0.0658443 -0.183537 -0.222414)
(-0.0659877 -0.183516 -0.222389)
(-0.0661168 -0.183497 -0.222366)
(-0.0688514 -0.190824 -0.231245)
(-0.0689378 -0.190812 -0.231229)
(-0.0689975 -0.190803 -0.231219)
(-0.0690282 -0.190799 -0.231214)
(-0.0690286 -0.190798 -0.231213)
(-0.0689988 -0.190803 -0.231219)
(-0.0689398 -0.190811 -0.231229)
(-0.0688541 -0.190824 -0.231244)
(-0.0687447 -0.19084 -0.231263)
(-0.0686161 -0.190858 -0.231286)
(-0.068473 -0.190879 -0.231311)
(-0.068321 -0.190901 -0.231338)
(-0.068166 -0.190923 -0.231365)
(-0.0680139 -0.190945 -0.231392)
(-0.0678705 -0.190966 -0.231417)
(-0.0677413 -0.190985 -0.231439)
(-0.0676314 -0.191001 -0.231459)
(-0.0675449 -0.191013 -0.231474)
(-0.0674852 -0.191022 -0.231484)
(-0.0674546 -0.191026 -0.23149)
(-0.0674542 -0.191026 -0.23149)
(-0.067484 -0.191022 -0.231485)
(-0.0675429 -0.191014 -0.231474)
(-0.0676287 -0.191001 -0.231459)