/*--------------------------------*- C++ -*----------------------------------*\
| =========                 |                                                 |
| \\      /  F ield         | OpenFOAM: The Open Source CFD Toolbox           |
|  \\    /   O peration     | Version:  v2012                                 |
|   \\  /    A nd           | Website:  www.openfoam.com                      |
|    \\/     M anipulation  |                                                 |
\*---------------------------------------------------------------------------*/
FoamFile
{
    version     2.0;
    format      ascii;
    class       surfaceVectorField;
    location    "0/beamtwo";
    object      refWf;
}
// * * * * * * * * * * * * * * * * * * * * * * * * * * * * * * * * * * * * * //

dimensions      [0 1 0 0 0 0 0];


internalField   nonuniform List<vector> 
59
(
(-0.00262467 -0.0073428 -0.00889815)
(-0.00524934 -0.0146856 -0.0177963)
(-0.00787401 -0.0220284 -0.0266944)
(-0.0104987 -0.0293713 -0.0355927)
(-0.0131233 -0.0367139 -0.0444906)
(-0.015748 -0.0440567 -0.0533889)
(-0.0183727 -0.0513996 -0.0622871)
(-0.0209973 -0.0587422 -0.071185)
(-0.023622 -0.0660851 -0.0800833)
(-0.0262467 -0.073428 -0.0889815)
(-0.0288713 -0.0807706 -0.0978795)
(-0.031496 -0.0881135 -0.106778)
(-0.0341207 -0.0954564 -0.115676)
(-0.0367453 -0.102799 -0.124574)
(-0.0393701 -0.110142 -0.133472)
(-0.0419948 -0.117485 -0.14237)
(-0.0446194 -0.124827 -0.151268)
(-0.0472441 -0.13217 -0.160167)
(-0.0498688 -0.139513 -0.169065)
(-0.0524934 -0.146856 -0.177963)
(-0.0551181 -0.154199 -0.186861)
(-0.0577428 -0.161541 -0.195759)
(-0.0603674 -0.168884 -0.204657)
(-0.0629921 -0.176227 -0.213555)
(-0.0656168 -0.18357 -0.222454)
(-0.0682414 -0.190912 -0.231352)
(-0.0708661 -0.198255 -0.24025)
(-0.0734908 -0.205598 -0.249148)
(-0.0761154 -0.212941 -0.258046)
(-0.0787401 -0.220284 -0.266944)
(-0.0813648 -0.227627 -0.275843)
(-0.0839894 -0.234969 -0.28474)
(-0.0866141 -0.242312 -0.293639)
(-0.0892388 -0.249655 -0.302537)
(-0.0918634 -0.256998 -0.311435)
(-0.0944881 -0.26434 -0.320333)
(-0.0971128 -0.271683 -0.329231)
(-0.0997371 -0.279025 -0.338128)
(-0.102362 -0.286369 -0.347028)
(-0.104987 -0.293713 -0.355927)
(-0.107611 -0.301053 -0.364823)
(-0.110236 -0.308397 -0.373722)
(-0.112861 -0.315741 -0.382621)
(-0.115485 -0.323082 -0.391517)
(-0.11811 -0.330426 -0.400416)
(-0.120735 -0.337769 -0.409316)
(-0.123359 -0.34511 -0.418212)
(-0.125984 -0.352454 -0.427111)
(-0.128609 -0.359798 -0.43601)
(-0.131233 -0.367139 -0.444906)
(-0.133858 -0.374482 -0.453805)
(-0.136483 -0.381826 -0.462705)
(-0.139107 -0.389167 -0.4716)
(-0.141732 -0.396511 -0.4805)
(-0.144357 -0.403854 -0.489399)
(-0.146981 -0.411195 -0.498295)
(-0.149606 -0.418539 -0.507194)
(-0.152231 -0.425883 -0.516093)
(-0.154855 -0.433224 -0.524989)
)
;

boundaryField
{
    left
    {
        type            calculated;
        value           uniform (7.89177e-21 -1.14276e-21 -1.38481e-21);
    }
    right
    {
        type            calculated;
        value           uniform (-0.15748 -0.440567 -0.533889);
    }
    beam
    {
        type            empty;
        value           nonuniform List<vector> 0();
    }
}


// ************************************************************************* //
