/*--------------------------------*- C++ -*----------------------------------*\
| =========                 |                                                 |
| \\      /  F ield         | OpenFOAM: The Open Source CFD Toolbox           |
|  \\    /   O peration     | Version:  v2012                                 |
|   \\  /    A nd           | Website:  www.openfoam.com                      |
|    \\/     M anipulation  |                                                 |
\*---------------------------------------------------------------------------*/
FoamFile
{
    version     2.0;
    format      ascii;
    class       volVectorField;
    location    "0/beamone";
    object      refW;
}
// * * * * * * * * * * * * * * * * * * * * * * * * * * * * * * * * * * * * * //

dimensions      [0 1 0 0 0 0 0];


internalField   nonuniform List<vector> 
60
(
(-1.38628 -0.419319 -0.495649)
(-1.38884 -0.411956 -0.486946)
(-1.3914 -0.404593 -0.478243)
(-1.39396 -0.39723 -0.46954)
(-1.39652 -0.389868 -0.460837)
(-1.39908 -0.382505 -0.452134)
(-1.40164 -0.375142 -0.443431)
(-1.4042 -0.36778 -0.434728)
(-1.40676 -0.360417 -0.426025)
(-1.40931 -0.353054 -0.417322)
(-1.41187 -0.345691 -0.408619)
(-1.41443 -0.338329 -0.399916)
(-1.41699 -0.330966 -0.391213)
(-1.41955 -0.323603 -0.38251)
(-1.42211 -0.316241 -0.373807)
(-1.42467 -0.308878 -0.365104)
(-1.42723 -0.301515 -0.356401)
(-1.42979 -0.294152 -0.347698)
(-1.43235 -0.28679 -0.338995)
(-1.43491 -0.279427 -0.330292)
(-1.43747 -0.272064 -0.321589)
(-1.44003 -0.264701 -0.312886)
(-1.44259 -0.257339 -0.304183)
(-1.44515 -0.249976 -0.29548)
(-1.44771 -0.242613 -0.286777)
(-1.45027 -0.235251 -0.278074)
(-1.45282 -0.227888 -0.269371)
(-1.45538 -0.220525 -0.260668)
(-1.45794 -0.213162 -0.251965)
(-1.4605 -0.2058 -0.243262)
(-1.46306 -0.198437 -0.234559)
(-1.46562 -0.191074 -0.225856)
(-1.46818 -0.183712 -0.217153)
(-1.47074 -0.176349 -0.20845)
(-1.4733 -0.168986 -0.199747)
(-1.47586 -0.161623 -0.191044)
(-1.47842 -0.154261 -0.182341)
(-1.48098 -0.146898 -0.173639)
(-1.48354 -0.139536 -0.164936)
(-1.4861 -0.132172 -0.156232)
(-1.48866 -0.12481 -0.147529)
(-1.49122 -0.117448 -0.138827)
(-1.49378 -0.110084 -0.130123)
(-1.49633 -0.102722 -0.12142)
(-1.49889 -0.0953594 -0.112718)
(-1.50145 -0.0879958 -0.104014)
(-1.50401 -0.0806335 -0.0953115)
(-1.50657 -0.0732712 -0.086609)
(-1.50913 -0.0659076 -0.077905)
(-1.51169 -0.0585453 -0.0692025)
(-1.51425 -0.0511831 -0.0605001)
(-1.51681 -0.0438194 -0.051796)
(-1.51937 -0.0364572 -0.0430936)
(-1.52193 -0.0290949 -0.0343912)
(-1.52449 -0.0217313 -0.0256871)
(-1.52705 -0.014369 -0.0169847)
(-1.52961 -0.00700676 -0.00828222)
(-1.53217 0.000356882 0.000421846)
(-1.53473 0.00771914 0.00912428)
(-1.53728 0.0150814 0.0178267)
)
;

boundaryField
{
    left
    {
        type            calculated;
        value           uniform (-1.385 -0.423 -0.5);
    }
    right
    {
        type            calculated;
        value           uniform (-1.53856 0.0187632 0.0221788);
    }
    beam
    {
        type            empty;
    }
}


// ************************************************************************* //
