/*--------------------------------*- C++ -*----------------------------------*\
| =========                 |                                                 |
| \\      /  F ield         | foam-extend: Open Source CFD                    |
|  \\    /   O peration     | Version:     4.1                                |
|   \\  /    A nd           | Web:         http://www.foam-extend.org         |
|    \\/     M anipulation  |                                                 |
\*---------------------------------------------------------------------------*/
FoamFile
{
    version     2.0;
    format      ascii;
    class       volScalarField;
    location    "0";
    object      k;
}
// * * * * * * * * * * * * * * * * * * * * * * * * * * * * * * * * * * * * * //

dimensions      [0 2 -2 0 0 0 0];

internalField   nonuniform List<scalar> 
35801
(
36.8333
36.8333
36.8333
36.8333
36.8333
36.8333
36.8333
36.8333
36.8333
36.8333
36.8333
36.8333
36.8334
36.8335
36.8337
36.834
36.8343
36.8349
36.8356
36.8364
36.8375
36.8385
36.8395
36.8403
36.8407
36.8407
36.8403
36.8395
36.8385
36.8375
36.8365
36.8357
36.835
36.8344
36.8341
36.8338
36.8336
36.8335
36.8334
36.8333
36.8333
36.8333
36.8333
36.8333
36.8333
36.8333
36.8333
36.8333
36.6588
36.6588
36.6588
36.6588
36.6588
36.6588
36.6588
36.6588
36.6588
36.6588
36.6589
36.659
36.6591
36.6594
36.6597
36.6603
36.6612
36.6623
36.6638
36.6657
36.6678
36.6701
36.6721
36.6738
36.6747
36.6746
36.6738
36.6722
36.6701
36.668
36.6659
36.6641
36.6626
36.6614
36.6606
36.6599
36.6595
36.6592
36.6591
36.6589
36.6589
36.6588
36.6588
36.6588
36.6588
36.6588
36.6588
36.6588
36.4858
36.4858
36.4858
36.4858
36.4858
36.4858
36.4858
36.4858
36.4858
36.4859
36.486
36.4861
36.4864
36.4868
36.4875
36.4884
36.4898
36.4918
36.4942
36.4972
36.5007
36.5042
36.5075
36.51
36.5114
36.5114
36.5101
36.5076
36.5044
36.501
36.4977
36.4947
36.4923
36.4903
36.4889
36.4878
36.4871
36.4866
36.4863
36.4861
36.486
36.4859
36.4858
36.4858
36.4858
36.4858
36.4858
36.4858
36.3143
36.3143
36.3143
36.3143
36.3143
36.3143
36.3143
36.3143
36.3143
36.3144
36.3146
36.3148
36.3152
36.3159
36.3169
36.3185
36.3206
36.3236
36.3273
36.3318
36.3368
36.342
36.3467
36.3503
36.3523
36.3523
36.3504
36.3469
36.3423
36.3374
36.3326
36.3281
36.3244
36.3215
36.3192
36.3176
36.3165
36.3157
36.3152
36.3149
36.3146
36.3145
36.3144
36.3144
36.3143
36.3143
36.3143
36.3143
36.1443
36.1443
36.1442
36.1442
36.1442
36.1442
36.1442
36.1443
36.1443
36.1445
36.1447
36.1451
36.1457
36.1467
36.1482
36.1505
36.154
36.1607
36.1659
36.1722
36.1793
36.1865
36.193
36.198
36.2007
36.2007
36.1981
36.1933
36.1871
36.1803
36.1737
36.1651
36.1594
36.1551
36.1518
36.1494
36.1477
36.1465
36.1457
36.1452
36.1449
36.1446
36.1445
36.1444
36.1443
36.1443
36.1443
36.1443
35.9757
35.9757
35.9757
35.9757
35.9756
35.9756
35.9757
35.9757
35.9758
35.976
35.9763
35.9769
35.9778
35.9792
35.9815
35.985
35.994
36.072
36.0811
36.0887
36.0972
36.1058
36.1138
36.12
36.1236
36.124
36.1214
36.116
36.1087
36.1006
36.0922
36.0101
35.998
35.9916
35.9868
35.9833
35.9808
35.9791
35.9779
35.9771
35.9766
35.9763
35.9761
35.9759
35.9758
35.9758
35.9757
35.9757
35.8085
35.8085
35.8085
35.8085
35.8085
35.8085
35.8085
35.8086
35.8087
35.809
35.8094
35.8102
35.8115
35.8136
35.8168
35.8237
35.9055
35.9096
35.9214
35.9322
35.9443
35.957
35.9688
35.9783
35.9839
35.985
35.9814
35.9738
35.9634
35.9516
35.9392
35.9295
35.8425
35.8312
35.8244
35.8195
35.8159
35.8135
35.8118
35.8107
35.8099
35.8094
35.8091
35.8089
35.8088
35.8087
35.8086
35.8086
35.6428
35.6428
35.6428
35.6428
35.6428
35.6428
35.6428
35.6429
35.6431
35.6434
35.6441
35.6452
35.647
35.6498
35.6546
35.6667
35.7411
35.7522
35.7674
35.7848
35.8027
35.8217
35.8398
35.8545
35.8632
35.8646
35.8586
35.8468
35.8309
35.8135
35.7937
35.778
35.6929
35.6747
35.665
35.6581
35.6532
35.6498
35.6474
35.6458
35.6448
35.6441
35.6436
35.6433
35.6431
35.643
35.643
35.6429
35.4785
35.4785
35.4785
35.4785
35.4785
35.4785
35.4785
35.4786
35.4789
35.4793
35.4802
35.4817
35.4841
35.4881
35.4963
35.5799
35.5837
35.5992
35.6523
35.673
35.6975
35.7245
35.7513
35.774
35.7881
35.7909
35.7824
35.7649
35.7421
35.7168
35.6598
35.6343
35.616
35.5243
35.5088
35.4992
35.4926
35.488
35.4848
35.4826
35.4812
35.4802
35.4796
35.4792
35.4789
35.4788
35.4787
35.4786
35.3157
35.3156
35.3156
35.3156
35.3156
35.3156
35.3156
35.3158
35.3161
35.3167
35.3179
35.3199
35.3231
35.3284
35.3398
35.4185
35.4309
35.4514
35.5043
35.5519
35.5896
35.6313
35.6754
35.7146
35.7396
35.7438
35.7274
35.6966
35.6589
35.6069
35.5384
35.4999
35.4722
35.3776
35.3561
35.3432
35.3343
35.3281
35.3239
35.3211
35.3192
35.3179
35.317
35.3165
35.3161
35.3159
35.3158
35.3157
35.1542
35.1542
35.1541
35.1541
35.1541
35.1541
35.1541
35.1543
35.1548
35.1556
35.1572
35.1597
35.1639
35.1709
35.1855
35.2612
35.2818
35.3097
35.3678
35.4268
35.4873
35.5595
35.6423
35.7138
35.756
35.7613
35.7312
35.6737
35.6018
35.5229
35.4336
35.3771
35.3363
35.2355
35.2072
35.19
35.1783
35.1703
35.1648
35.1611
35.1587
35.157
35.1559
35.1552
35.1547
35.1544
35.1542
35.1542
34.9941
34.9941
34.994
34.994
34.994
34.994
34.9941
34.9944
34.9949
34.996
34.998
35.0012
35.0065
35.0155
35.0337
35.1079
35.1369
35.1747
35.2427
35.3208
35.4165
35.5426
35.673
35.7859
35.8556
35.8604
35.8053
35.7131
35.6027
35.4772
35.3515
35.2685
35.2092
35.0987
35.0622
35.0398
35.0247
35.0145
35.0075
35.0029
34.9997
34.9976
34.9962
34.9953
34.9947
34.9943
34.9941
34.994
34.8354
34.8353
34.8353
34.8353
34.8352
34.8353
34.8354
34.8358
34.8366
34.8379
34.8403
34.8444
34.851
34.8623
34.8844
34.9585
34.9966
35.0472
35.13
35.2359
35.3867
35.5728
35.7738
35.9743
36.1091
36.1044
35.9858
35.8226
35.6528
35.4795
35.2984
35.1767
35.0922
34.9675
34.9214
34.8926
34.8735
34.8607
34.8521
34.8462
34.8423
34.8397
34.8379
34.8368
34.836
34.8355
34.8353
34.8351
34.678
34.678
34.678
34.678
34.678
34.678
34.6782
34.6787
34.6797
34.6814
34.6843
34.6893
34.6974
34.7113
34.7376
34.813
34.8609
34.9271
35.03
35.1744
35.3916
35.6495
35.9758
36.3849
36.7193
36.6493
36.3433
36.0298
35.7586
35.5161
35.2778
35.1036
34.9861
34.842
34.7846
34.7484
34.7248
34.709
34.6984
34.6912
34.6864
34.6832
34.6811
34.6797
34.6787
34.6781
34.6778
34.6776
34.5221
34.5221
34.5221
34.522
34.5221
34.5222
34.5225
34.5231
34.5243
34.5264
34.5299
34.5359
34.5457
34.5625
34.5934
34.671
34.7297
34.814
34.9419
35.1347
35.4156
35.7712
36.3037
37.2662
38.4063
37.9306
36.9875
36.3622
35.9267
35.5854
35.2849
35.0492
34.8905
34.722
34.6516
34.6071
34.5783
34.5592
34.5464
34.5378
34.5321
34.5282
34.5256
34.5239
34.5227
34.522
34.5216
34.5214
34.3675
34.3675
34.3675
34.3675
34.3675
34.3677
34.3681
34.3689
34.3703
34.3728
34.3771
34.3839
34.3957
34.4156
34.4514
34.5323
34.6024
34.7065
34.8632
35.1085
35.452
35.9183
36.7143
38.9161
40.5566
38.0071
36.8255
36.1538
35.6838
35.3058
35.0102
34.8045
34.6066
34.5219
34.4683
34.4338
34.4109
34.3957
34.3855
34.3786
34.374
34.3709
34.3688
34.3675
34.3666
34.366
34.3658
34.2137
34.2137
34.2137
34.2137
34.2138
34.214
34.2146
34.2156
34.2173
34.2204
34.2255
34.2337
34.2475
34.2707
34.3115
34.3964
34.4783
34.6032
34.7905
35.0853
35.4902
36.0584
37.0634
40.2185
44.2583
39.2672
37.3763
36.4212
35.8019
35.3341
34.9808
34.7256
34.4948
34.395
34.3318
34.2913
34.2646
34.2467
34.2348
34.2268
34.2214
34.2177
34.2153
34.2136
34.2126
34.2119
34.2116
34.0613
34.0613
34.0614
34.0614
34.0616
34.0619
34.0626
34.0638
34.066
34.0696
34.0756
34.0855
34.1013
34.1278
34.1735
34.2629
34.3568
34.5024
34.7199
35.0578
35.5218
36.1737
37.3052
40.582
46.7825
40.4291
37.9309
36.6987
35.9262
35.3637
34.9545
34.6508
34.3852
34.2701
34.1974
34.1509
34.1203
34.0999
34.0862
34.077
34.0708
34.0666
34.0638
34.0619
34.0607
34.0599
34.0596
33.9111
33.9111
33.9112
33.9113
33.9115
33.9119
33.9128
33.9142
33.9167
33.9209
33.9277
33.9389
33.9568
33.9866
34.0371
34.1314
34.2371
34.4028
34.6487
35.0234
35.5436
36.2677
37.5071
40.3565
48.0346
41.315
38.4191
36.9562
36.0423
35.3881
34.9246
34.5765
34.2762
34.1465
34.0646
34.0121
33.9776
33.9546
33.9392
33.9287
33.9217
33.9169
33.9137
33.9115
33.9101
33.9093
33.9089
33.7624
33.7624
33.7625
33.7626
33.7629
33.7634
33.7644
33.7661
33.769
33.7737
33.7814
33.7939
33.8139
33.8469
33.9021
34.0013
34.1184
34.3031
34.5749
34.9816
35.5547
36.351
37.6981
39.8589
48.5053
41.9145
38.8036
37.1713
36.1384
35.4011
34.8855
34.4992
34.1665
34.0232
33.9327
33.8745
33.8362
33.8107
33.7935
33.7819
33.774
33.7686
33.765
33.7626
33.761
33.76
33.7596
33.615
33.6151
33.6152
33.6154
33.6157
33.6164
33.6175
33.6195
33.6228
33.6281
33.6367
33.6505
33.6724
33.7085
33.7682
33.8723
34.0001
34.2024
34.4972
34.933
35.5571
36.4307
37.8712
39.0861
34.1655
48.6011
42.2735
39.0733
37.331
36.2064
35.396
34.8336
34.4162
34.055
33.8996
33.8013
33.7378
33.696
33.668
33.6492
33.6364
33.6277
33.6217
33.6177
33.6149
33.6132
33.6121
33.6116
33.4691
33.4692
33.4693
33.4696
33.47
33.4708
33.4721
33.4744
33.478
33.4839
33.4933
33.5084
33.5323
33.5712
33.6351
33.744
33.8818
34.1
34.4151
34.878
35.5518
36.5064
38.0122
38.058
34.3624
48.4519
42.4357
39.2329
37.4315
36.2423
35.3649
34.7669
34.3256
33.9408
33.7752
33.6701
33.6019
33.5568
33.5266
33.5061
33.4922
33.4827
33.4761
33.4717
33.4687
33.4667
33.4655
33.4649
33.3246
33.3247
33.3249
33.3252
33.3257
33.3266
33.3282
33.3307
33.3347
33.3412
33.3514
33.3677
33.3934
33.435
33.5027
33.6161
33.763
33.9954
34.328
34.816
35.5372
36.576
38.1034
35.5664
38.8525
48.049
42.4398
39.2965
37.4758
36.244
35.3078
34.6851
34.2267
33.8235
33.6496
33.5388
33.4664
33.4185
33.3862
33.3643
33.3493
33.339
33.3319
33.327
33.3237
33.3215
33.3202
33.3196
33.1816
33.1816
33.1818
33.1822
33.1828
33.1839
33.1856
33.1884
33.1928
33.1998
33.2108
33.2282
33.2557
33.2998
33.3708
33.4882
33.6434
33.888
34.2356
34.7464
35.5101
36.6237
38.1037
32.1863
39.2391
47.3319
42.3342
39.2849
37.4714
36.2063
35.2269
34.5891
34.1195
33.703
33.5227
33.4072
33.3314
33.2809
33.2468
33.2235
33.2075
33.1965
33.1888
33.1836
33.18
33.1776
33.1762
33.1756
33.0398
33.0399
33.0402
33.0406
33.0413
33.0425
33.0444
33.0475
33.0523
33.0598
33.0715
33.09
33.119
33.1653
33.2394
33.3604
33.5227
33.7779
34.138
34.6685
35.468
36.6319
37.9362
28.4123
39.0443
46.4668
42.1095
39.2115
37.4164
36.125
35.126
34.4808
34.0047
33.5793
33.3944
33.2752
33.1965
33.1439
33.1082
33.0837
33.0668
33.0551
33.047
33.0414
33.0375
33.035
33.0335
33.0328
32.8995
32.8996
32.8999
32.9004
32.9012
32.9025
32.9046
32.9079
32.9131
32.921
32.9335
32.9529
32.9833
33.0316
33.1082
33.2324
33.401
33.6651
34.0354
34.5825
35.4101
36.5937
37.6315
25.1099
38.6022
45.6155
41.7852
39.0594
37.3049
36.0123
35.0092
34.3624
33.8834
33.4529
33.2648
33.1428
33.0618
33.0075
32.9704
32.9449
32.9272
32.9149
32.9063
32.9004
32.8963
32.8936
32.892
32.8912
32.7604
32.7606
32.7609
32.7614
32.7624
32.7638
32.7661
32.7696
32.7751
32.7835
32.7966
32.8168
32.8485
32.8985
32.9774
33.1043
33.2783
33.5497
33.9285
34.4891
35.3375
36.5122
37.2258
22.4264
38.0433
44.8108
41.4283
38.8623
37.1582
35.8783
34.8804
34.236
33.7568
33.3241
33.134
33.0099
32.9272
32.8715
32.8333
32.807
32.7886
32.7758
32.7668
32.7605
32.7562
32.7533
32.7516
32.7508
32.6227
32.6228
32.6232
32.6238
32.6248
32.6264
32.6289
32.6326
32.6384
32.6473
32.6609
32.6819
32.7146
32.7661
32.8469
32.976
33.1546
33.4322
33.8178
34.3895
35.2523
36.3935
36.7362
20.1979
37.4311
44.0506
41.0652
38.6438
36.9913
35.7307
34.743
34.1035
33.6261
33.1934
33.0023
32.8768
32.7928
32.7361
32.697
32.6698
32.6509
32.6376
32.6283
32.6217
32.6172
32.6142
32.6124
32.6115
32.4862
32.4864
32.4868
32.4874
32.4886
32.4903
32.4929
32.4969
32.5029
32.5121
32.5262
32.5479
32.5815
32.6343
32.7167
32.8477
33.0302
33.3129
33.7042
34.2848
35.156
36.2433
36.1713
18.2752
36.7992
43.3302
40.7067
38.4161
36.8135
35.5746
34.5996
33.9666
33.4924
33.0613
32.8699
32.7434
32.6586
32.601
32.5612
32.5335
32.5141
32.5004
32.4908
32.484
32.4793
32.4762
32.4743
32.4734
32.3509
32.3511
32.3516
32.3523
32.3535
32.3553
32.3581
32.3623
32.3686
32.3781
32.3926
32.4149
32.4493
32.5032
32.5869
32.7195
32.9052
33.1923
33.5883
34.1761
35.0501
36.0667
35.5569
16.591
36.1664
42.647
40.3569
38.1858
36.6302
35.4136
34.4524
33.8268
33.3566
32.9281
32.7369
32.6099
32.5246
32.4665
32.4261
32.398
32.3782
32.3642
32.3542
32.3473
32.3424
32.3392
32.3372
32.3363
32.2169
32.2171
32.2176
32.2184
32.2196
32.2216
32.2245
32.2288
32.2353
32.2452
32.26
32.2828
32.3179
32.3727
32.4576
32.5914
32.7799
33.0706
33.4706
34.0642
34.9355
35.867
34.9142
15.1299
35.5433
41.9979
40.0154
37.9562
36.4447
35.25
34.3028
33.6851
33.2195
32.7942
32.6037
32.4765
32.3909
32.3323
32.2917
32.2632
32.243
32.2288
32.2187
32.2115
32.2065
32.2032
32.2012
32.2002
32.084
32.0842
32.0847
32.0856
32.0869
32.089
32.092
32.0965
32.1032
32.1133
32.1285
32.1517
32.1873
32.243
32.3288
32.4636
32.6545
32.9484
33.3517
33.9496
34.813
35.6461
34.2538
13.891
34.9355
41.3796
39.6801
37.7291
36.2589
35.0855
34.1521
33.5424
33.0817
32.66
32.4704
32.3433
32.2575
32.1987
32.1578
32.1291
32.1087
32.0943
32.084
32.0767
32.0716
32.0682
32.0661
32.0651
31.9523
31.9525
31.9531
31.954
31.9554
31.9575
31.9606
31.9653
31.9721
31.9824
31.9979
32.0214
32.0576
32.1139
32.2006
32.3363
32.5293
32.8259
33.232
33.8329
34.683
35.4052
33.5844
12.8691
34.346
40.7887
39.3496
37.5051
36.0742
34.921
34.0011
33.3994
32.9437
32.5258
32.3371
32.2102
32.1245
32.0657
32.0246
31.9957
31.9752
31.9606
31.9502
31.9428
31.9376
31.9341
31.932
31.931
31.8217
31.8219
31.8225
31.8234
31.8249
31.8271
31.8303
31.8351
31.8421
31.8526
31.8683
31.8921
31.9287
31.9856
32.073
32.2095
32.4044
32.7035
33.1119
33.7143
34.546
35.1466
32.9139
12.0488
33.7763
40.2225
39.0237
37.2837
35.8912
34.7575
33.8505
33.2565
32.8058
32.3916
32.2041
32.0776
31.992
31.9331
31.892
31.8631
31.8425
31.8277
31.8172
31.8098
31.8045
31.801
31.7988
31.7978
31.6922
31.6924
31.693
31.694
31.6955
31.6978
31.7011
31.706
31.7131
31.7237
31.7396
31.7637
31.8007
31.8581
31.9461
32.0833
32.2799
32.5812
32.9917
33.5943
34.4018
34.8739
32.249
11.407
33.2265
39.6785
38.7024
37.0646
35.7101
34.5953
33.7007
33.1141
32.6683
32.2579
32.0715
31.9454
31.86
31.8012
31.7602
31.7311
31.7105
31.6957
31.6851
31.6776
31.6723
31.6688
31.6666
31.6656
31.5637
31.564
31.5646
31.5656
31.5672
31.5695
31.5729
31.5778
31.5851
31.5958
31.6118
31.6362
31.6735
31.7313
31.82
31.9577
32.1559
32.4593
32.8715
33.4728
34.2504
34.5903
31.5952
10.9174
32.6965
39.1547
38.3858
36.8475
35.5311
34.4347
33.5519
32.9723
32.5314
32.1246
31.9393
31.8137
31.7286
31.6699
31.6289
31.5999
31.5793
31.5645
31.5539
31.5463
31.541
31.5374
31.5352
31.5342
31.4363
31.4366
31.4372
31.4383
31.4399
31.4423
31.4457
31.4507
31.458
31.4688
31.485
31.5095
31.5471
31.6053
31.6946
31.8328
32.0325
32.3379
32.7515
33.3498
34.0921
34.2985
30.9571
10.5537
32.1857
38.6492
38.0739
36.6323
35.3541
34.2758
33.4042
32.8315
32.3953
31.9918
31.8077
31.6826
31.5978
31.5393
31.4984
31.4695
31.4488
31.434
31.4234
31.4158
31.4105
31.4069
31.4047
31.4036
31.31
31.3103
31.3109
31.312
31.3136
31.316
31.3195
31.3246
31.332
31.3429
31.3591
31.3838
31.4216
31.4802
31.57
31.7087
31.9098
32.217
32.6315
33.2252
33.9271
34.0005
30.3378
10.2922
31.6934
38.1607
37.7665
36.4187
35.1788
34.1186
33.2578
32.6916
32.2599
31.8598
31.6767
31.5522
31.4676
31.4093
31.3686
31.3397
31.3191
31.3044
31.2938
31.2862
31.2808
31.2772
31.275
31.274
31.1846
31.1849
31.1856
31.1867
31.1883
31.1908
31.1943
31.1994
31.2068
31.2178
31.2341
31.2589
31.2969
31.3559
31.4462
31.5854
31.7878
32.0966
32.5118
33.0988
33.7562
33.6979
29.7397
10.1122
31.2187
37.6877
37.4635
36.2067
35.0053
33.963
33.1128
32.5527
32.1254
31.7285
31.5464
31.4224
31.3382
31.2801
31.2395
31.2108
31.1902
31.1755
31.1649
31.1573
31.152
31.1484
31.1462
31.1452
31.0602
31.0605
31.0612
31.0623
31.064
31.0665
31.0701
31.0752
31.0827
31.0936
31.1101
31.1349
31.1731
31.2324
31.3232
31.4628
31.6665
31.9769
32.3921
32.9705
33.5801
33.3921
29.1642
9.9966
30.761
37.2292
37.1648
35.9962
34.8335
33.8091
32.9691
32.415
31.9919
31.598
31.4169
31.2934
31.2094
31.1516
31.1112
31.0825
31.0621
31.0474
31.0369
31.0293
31.024
31.0204
31.0182
31.0172
30.9368
30.9371
30.9378
30.9389
30.9407
30.9432
30.9468
30.9519
30.9594
30.9704
30.9869
31.0119
31.0502
31.1097
31.2011
31.341
31.5459
31.8577
32.2724
32.8403
33.3993
33.0844
28.6121
9.93168
30.3192
36.7842
36.8701
35.7872
34.6631
33.6568
32.8267
32.2783
31.8594
31.4684
31.2881
31.1651
31.0815
31.0239
30.9836
30.9551
30.9348
30.9202
30.9097
30.9021
30.8969
30.8933
30.8911
30.8901
30.8144
30.8147
30.8154
30.8165
30.8183
30.8208
30.8244
30.8296
30.8371
30.8481
30.8646
30.8896
30.9282
30.9879
31.0798
31.2201
31.4261
31.7391
32.1527
32.7081
33.2146
32.7757
28.0835
9.90632
29.8926
36.3518
36.5794
35.5797
34.4941
33.506
32.6857
32.1429
31.7279
31.3396
31.1602
31.0377
30.9543
30.8969
30.8568
30.8285
30.8082
30.7937
30.7832
30.7757
30.7705
30.7669
30.7648
30.7637
30.6929
30.6932
30.6939
30.695
30.6968
30.6993
30.7029
30.7081
30.7156
30.7267
30.7432
30.7683
30.807
30.867
30.9594
31.1
31.3071
31.6211
32.0329
32.574
33.0265
32.467
27.5781
9.91176
29.4804
35.9312
36.2926
35.3735
34.3264
33.3567
32.5461
32.0086
31.5974
31.2117
31.0331
30.911
30.8279
30.7707
30.7308
30.7026
30.6824
30.668
30.6576
30.6502
30.6449
30.6414
30.6393
30.6382
30.5723
30.5726
30.5733
30.5745
30.5762
30.5788
30.5824
30.5876
30.5951
30.6061
30.6227
30.6479
30.6867
30.747
30.8398
30.9808
31.1889
31.5036
31.913
32.438
32.8356
32.159
27.0953
9.94107
29.0819
35.5218
36.0094
35.1688
34.16
33.2088
32.4077
31.8754
31.4679
31.0848
30.9069
30.7852
30.7023
30.6453
30.6056
30.5775
30.5575
30.5431
30.5328
30.5254
30.5202
30.5167
30.5146
30.5136
30.4527
30.453
30.4537
30.4549
30.4566
30.4591
30.4628
30.468
30.4755
30.4865
30.5031
30.5283
30.5672
30.6278
30.7211
30.8624
31.0714
31.3867
31.7929
32.3002
32.6423
31.8525
26.6343
9.9888
28.6964
35.1229
35.7299
34.9654
33.9947
33.0623
32.2707
31.7434
31.3395
30.9587
30.7816
30.6602
30.5776
30.5207
30.4812
30.4532
30.4333
30.419
30.4088
30.4014
30.3963
30.3928
30.3907
30.3897
30.3339
30.3343
30.335
30.3361
30.3379
30.3404
30.344
30.3492
30.3567
30.3677
30.3843
30.4096
30.4487
30.5094
30.6031
30.7447
30.9548
31.2703
31.6725
32.1741
32.4136
31.3563
25.4355
10.8462
28.9908
34.8159
35.3961
34.6815
33.7534
32.9158
32.1349
31.6126
31.2119
30.8334
30.6571
30.5361
30.4537
30.397
30.3576
30.3298
30.31
30.2958
30.2856
30.2783
30.2732
30.2697
30.2676
30.2666
30.2161
30.2164
30.2171
30.2183
30.22
30.2226
30.2262
30.2314
30.2388
30.2499
30.2664
30.2918
30.331
30.3919
30.4855
30.6193
30.838
31.1543
31.5847
32.0313
32.2096
31.0421
25.0108
10.9264
28.6094
34.4412
35.1279
34.4832
33.5917
32.7701
31.9993
31.4826
30.9479
30.7088
30.5336
30.4129
30.3306
30.2741
30.2348
30.2071
30.1874
30.1733
30.1632
30.156
30.1509
30.1475
30.1454
30.1444
30.0992
30.0995
30.1002
30.1013
30.1031
30.1056
30.1092
30.1144
30.1218
30.1328
30.1494
30.1748
30.2141
30.2753
30.369
30.5052
30.7214
31.0386
31.462
31.8908
31.8904
30.2311
22.8567
13.2788
29.3116
34.2118
34.7598
34.1362
33.2871
32.5027
31.8652
31.3533
30.8253
30.5851
30.4109
30.2905
30.2084
30.152
30.1129
30.0853
30.0657
30.0517
30.0416
30.0344
30.0294
30.026
30.0239
30.023
29.9831
29.9834
29.9841
29.9853
29.987
29.9895
29.9931
29.9982
30.0057
30.0167
30.0333
30.0587
30.0981
30.1595
30.2533
30.3916
30.6232
30.9223
31.3383
31.7371
31.6715
29.9048
22.4793
13.2893
28.935
33.8651
34.5075
33.9462
33.1309
32.3634
31.7321
31.0581
30.703
30.4626
30.2891
30.169
30.087
30.0308
29.9917
29.9643
29.9448
29.9308
29.9208
29.9137
29.9087
29.9054
29.9033
29.9023
29.8679
29.8682
29.8689
29.87
29.8718
29.8743
29.8779
29.883
29.8904
29.9014
29.918
29.9434
29.983
30.0445
30.1386
30.2787
30.5102
30.8467
31.2508
31.518
31.0359
28.1202
17.9461
17.7394
30.0619
33.6825
34.0518
33.4768
32.7073
31.9934
31.4035
30.9338
30.5816
30.341
30.1682
30.0484
29.9665
29.9104
29.8714
29.8441
29.8247
29.8108
29.8009
29.7938
29.7889
29.7855
29.7835
29.7825
29.7535
29.7538
29.7545
29.7557
29.7574
29.7599
29.7635
29.7686
29.776
29.7869
29.8035
29.829
29.8687
29.9304
30.0248
30.1665
30.3978
30.7299
31.1179
31.3447
30.7883
27.7835
17.7348
17.5881
29.7049
33.3716
33.8207
33.2986
32.5583
31.859
31.2759
30.8105
30.461
30.2204
30.0482
29.9286
29.8469
29.7908
29.752
29.7247
29.7054
29.6916
29.6817
29.6747
29.6698
29.6665
29.6645
29.6635
29.64
29.6403
29.641
29.6422
29.6439
29.6464
29.6499
29.655
29.6624
29.6733
29.6899
29.7154
29.7552
29.8171
29.9119
30.0551
30.2859
30.6132
30.9844
31.171
30.5435
27.4571
17.5335
17.4427
29.3579
33.0664
33.5918
33.1213
32.41
31.7254
31.1493
30.6883
30.3414
30.1008
29.9291
29.8098
29.7281
29.6721
29.6333
29.6062
29.5869
29.5732
29.5634
29.5564
29.5515
29.5483
29.5463
29.5453
29.5274
29.5277
29.5284
29.5295
29.5312
29.5337
29.5372
29.5423
29.5496
29.5605
29.5771
29.6027
29.6426
29.7047
29.7998
29.9443
30.1745
30.4966
30.8504
30.9971
30.3014
27.1407
17.3414
17.3028
29.0204
32.7669
33.3652
32.9449
32.2625
31.5927
31.0237
30.567
30.2226
29.9821
29.8109
29.6918
29.6102
29.5542
29.5155
29.4884
29.4693
29.4556
29.4459
29.4389
29.4341
29.4309
29.4289
29.4279
29.4156
29.4159
29.4165
29.4177
29.4194
29.4218
29.4253
29.4303
29.4377
29.4486
29.4651
29.4908
29.5308
29.5931
29.6887
29.8343
30.0636
30.38
30.7159
30.8232
30.0622
26.8338
17.1581
17.168
28.692
32.4728
33.1407
32.7696
32.1158
31.4609
30.8991
30.4466
30.1046
29.8644
29.6936
29.5746
29.4931
29.4372
29.3986
29.3715
29.3524
29.3388
29.3291
29.3222
29.3174
29.3142
29.3123
29.3113
29.3046
29.3049
29.3055
29.3066
29.3083
29.3108
29.3143
29.3192
29.3265
29.3374
29.354
29.3797
29.4198
29.4823
29.5783
29.7249
29.9532
30.2634
30.5811
30.6493
29.826
26.536
16.9831
17.0379
28.3724
32.184
32.9183
32.5952
31.9698
31.3299
30.7754
30.3272
29.9876
29.7477
29.5772
29.4584
29.3769
29.321
29.2824
29.2554
29.2364
29.2228
29.2132
29.2064
29.2016
29.1984
29.1965
29.1955
29.1944
29.1947
29.1953
29.1965
29.1981
29.2005
29.204
29.209
29.2162
29.2271
29.2437
29.2694
29.3097
29.3724
29.4688
29.6162
29.8433
30.1469
30.4459
30.4758
29.5928
26.2467
16.8159
16.9125
28.0612
31.9004
32.6981
32.4218
31.8245
31.1996
30.6527
30.2087
29.8714
29.6318
29.4616
29.343
29.2615
29.2056
29.1671
29.1402
29.1212
29.1077
29.0981
29.0913
29.0865
29.0834
29.0815
29.0805
29.085
29.0853
29.086
29.0871
29.0887
29.0911
29.0945
29.0995
29.1067
29.1176
29.1342
29.16
29.2003
29.2633
29.3601
29.5083
29.7339
30.0305
30.3106
30.3026
29.3626
25.9657
16.6561
16.7915
27.758
31.6218
32.4801
32.2494
31.68
31.0702
30.5308
30.0911
29.756
29.5169
29.347
29.2284
29.147
29.0911
29.0526
29.0257
29.0067
28.9933
28.9838
28.977
28.9723
28.9691
28.9672
28.9663
28.9764
28.9767
28.9774
28.9785
28.9801
28.9825
28.9859
28.9908
28.998
29.0088
29.0255
29.0513
29.0918
29.155
29.2523
29.4009
29.6249
29.9142
30.1751
30.1299
29.1354
25.6926
16.5031
16.6746
27.4626
31.3481
32.2642
32.078
31.5361
30.9415
30.4099
29.9744
29.6415
29.4029
29.2332
29.1147
29.0333
28.9774
28.9389
28.912
28.8931
28.8797
28.8702
28.8635
28.8588
28.8557
28.8538
28.8529
28.8686
28.8689
28.8696
28.8706
28.8723
28.8746
28.878
28.8829
28.8901
28.9009
28.9175
28.9435
28.9841
29.0475
29.1452
29.2943
29.5163
29.798
30.0395
29.9579
28.9113
25.427
16.3568
16.5618
27.1747
31.0791
32.0505
31.9076
31.393
30.8136
30.2898
29.8586
29.5279
29.2897
29.1203
29.0019
28.9204
28.8645
28.826
28.7992
28.7803
28.767
28.7575
28.7508
28.7461
28.743
28.7412
28.7403
28.7616
28.7619
28.7626
28.7636
28.7652
28.7676
28.7709
28.7758
28.783
28.7938
28.8104
28.8364
28.8771
28.9408
29.0389
29.1883
29.4083
29.682
29.9039
29.7866
28.6903
25.1686
16.2166
16.4528
26.894
30.8147
31.8389
31.7382
31.2506
30.6863
30.1705
29.7436
29.4151
29.1774
29.0082
28.8899
28.8084
28.7524
28.7139
28.6871
28.6683
28.655
28.6455
28.6389
28.6342
28.6312
28.6293
28.6284
28.6554
28.6557
28.6563
28.6574
28.659
28.6613
28.6646
28.6695
28.6766
28.6874
28.704
28.7301
28.771
28.8349
28.9333
29.0829
29.3006
29.566
29.7684
29.6161
28.4722
24.917
16.0823
16.3476
26.6202
30.5548
31.6294
31.5699
31.1089
30.5598
30.052
29.6295
29.3031
29.066
28.897
28.7787
28.6971
28.6412
28.6026
28.5758
28.557
28.5438
28.5343
28.5277
28.5231
28.52
28.5182
28.5173
28.5499
28.5502
28.5508
28.5519
28.5535
28.5558
28.5591
28.5639
28.571
28.5818
28.5985
28.6246
28.6656
28.7297
28.8286
28.9782
29.1934
29.4502
29.633
29.4464
28.2571
24.6719
15.9536
16.2459
26.3531
30.2994
31.422
31.4025
30.9678
30.4341
29.9343
29.5161
29.1919
28.9554
28.7866
28.6683
28.5867
28.5307
28.4922
28.4654
28.4466
28.4333
28.4239
28.4173
28.4128
28.4097
28.4079
28.407
28.4452
28.4455
28.4461
28.4472
28.4487
28.451
28.4543
28.4591
28.4662
28.4769
28.4936
28.5198
28.561
28.6254
28.7245
28.8741
29.0866
29.3346
29.4977
29.2776
28.045
24.4331
15.8301
16.1476
26.0925
30.0483
31.2167
31.2362
30.8275
30.309
29.8174
29.4036
29.0816
28.8457
28.6771
28.5588
28.4771
28.4211
28.3825
28.3557
28.3369
28.3237
28.3143
28.3077
28.3032
28.3002
28.2983
28.2975
28.3413
28.3416
28.3422
28.3432
28.3447
28.347
28.3503
28.355
28.3621
28.3728
28.3896
28.4158
28.4572
28.5218
28.6212
28.7706
28.9802
29.2192
29.3626
29.1098
27.8358
24.2002
15.7116
16.0527
25.8381
29.8013
31.0134
31.0709
30.6879
30.1845
29.7013
29.2919
28.972
28.7368
28.5683
28.4501
28.3683
28.3122
28.2736
28.2468
28.228
28.2148
28.2055
28.1989
28.1944
28.1913
28.1895
28.1887
28.2381
28.2384
28.239
28.24
28.2415
28.2437
28.247
28.2517
28.2587
28.2695
28.2862
28.3126
28.3541
28.4189
28.5187
28.6678
28.8742
29.1039
29.2278
28.943
27.6294
23.9731
15.5978
15.9609
25.5898
29.5585
30.8123
30.9067
30.549
30.0608
29.5859
29.181
28.8632
28.6287
28.4604
28.3422
28.2603
28.2041
28.1654
28.1386
28.1199
28.1067
28.0974
28.0908
28.0863
28.0833
28.0815
28.0806
28.1356
28.1359
28.1365
28.1375
28.139
28.1412
28.1444
28.1491
28.1561
28.1669
28.1837
28.2101
28.2517
28.3168
28.4168
28.5655
28.7687
28.9889
29.0933
28.7772
27.4258
23.7514
15.4885
15.8723
25.3474
29.3197
30.6132
30.7436
30.4107
29.9377
29.4712
29.0708
28.7552
28.5214
28.3533
28.235
28.1531
28.0968
28.0581
28.0312
28.0125
27.9993
27.99
27.9835
27.979
27.976
27.9742
27.9733
28.0339
28.0341
28.0347
28.0357
28.0372
28.0394
28.0426
28.0473
28.0543
28.065
28.0818
28.1083
28.1501
28.2155
28.3157
28.4638
28.6635
28.8741
28.959
28.6125
27.2251
23.5349
15.3835
15.7867
25.1107
29.0849
30.4162
30.5815
30.2732
29.8153
29.3572
28.9614
28.648
28.4149
28.247
28.1287
28.0467
27.9903
27.9515
27.9246
27.9059
27.8927
27.8834
27.8769
27.8724
27.8694
27.8676
27.8668
27.9329
27.9331
27.9337
27.9347
27.9361
27.9383
27.9415
27.9461
27.9531
27.9639
27.9807
28.0073
28.0493
28.1149
28.2152
28.3627
28.5588
28.7596
28.8252
28.4489
27.027
23.3233
15.2825
15.704
24.8795
28.8539
30.2212
30.4205
30.1364
29.6935
29.244
28.8527
28.5415
28.3091
28.1414
28.0231
27.941
27.8846
27.8457
27.8188
27.8
27.7868
27.7776
27.7711
27.7666
27.7636
27.7618
27.761
27.8326
27.8328
27.8334
27.8343
27.8358
27.838
27.8411
27.8457
27.8527
27.8635
27.8803
27.907
27.9492
28.015
28.1155
28.2621
28.4544
28.6453
28.6917
28.2865
26.8315
23.1165
15.1853
15.6241
24.6537
28.6267
30.0283
30.2605
30.0002
29.5723
29.1314
28.7447
28.4358
28.2042
28.0367
27.9183
27.8361
27.7796
27.7406
27.7137
27.6949
27.6817
27.6724
27.666
27.6615
27.6586
27.6568
27.6559
27.733
27.7332
27.7338
27.7347
27.7362
27.7383
27.7414
27.746
27.753
27.7638
27.7807
27.8074
27.8498
27.9158
28.0164
28.1621
28.3505
28.5313
28.5587
28.1251
26.6387
22.9143
15.0918
15.547
24.4331
28.4033
29.8374
30.1016
29.8648
29.4518
29.0195
28.6375
28.3308
28.1
27.9327
27.8143
27.732
27.6753
27.6363
27.6093
27.5905
27.5773
27.5681
27.5616
27.5571
27.5542
27.5524
27.5516
27.6341
27.6343
27.6349
27.6358
27.6372
27.6393
27.6424
27.647
27.654
27.6648
27.6817
27.7086
27.7511
27.8173
27.9179
28.0627
28.2469
28.4176
28.4261
27.9649
26.4484
22.7164
15.0018
15.4725
24.2176
28.1835
29.6485
29.9439
29.7301
29.3319
28.9082
28.5309
28.2265
27.9966
27.8295
27.7111
27.6286
27.5718
27.5327
27.5057
27.4869
27.4737
27.4644
27.458
27.4535
27.4506
27.4488
27.448
27.5359
27.5361
27.5367
27.5376
27.539
27.5411
27.5442
27.5487
27.5557
27.5665
27.5835
27.6104
27.6531
27.7196
27.8202
27.9638
28.1438
28.3042
28.294
27.8059
26.2606
22.5227
14.9152
15.4007
24.007
27.9672
29.4616
29.7872
29.5961
29.2127
28.7977
28.4251
28.123
27.8939
27.727
27.6086
27.526
27.4691
27.4299
27.4028
27.3839
27.3707
27.3615
27.355
27.3506
27.3477
27.3459
27.3451
27.4384
27.4386
27.4392
27.4401
27.4415
27.4435
27.4466
27.4511
27.4581
27.4689
27.4859
27.513
27.5558
27.6225
27.723
27.8655
28.0411
28.1911
28.1624
27.648
26.0752
22.3329
14.8317
15.3315
23.8013
27.7545
29.2768
29.6317
29.4628
29.094
28.6877
28.3199
28.0202
27.792
27.6253
27.5068
27.4241
27.3671
27.3278
27.3006
27.2817
27.2685
27.2593
27.2528
27.2484
27.2455
27.2437
27.2429
27.342
27.3422
27.3427
27.3436
27.345
27.347
27.35
27.3546
27.3615
27.3723
27.3894
27.4166
27.4596
27.5265
27.6269
27.7681
27.9391
28.0787
28.0317
27.4917
25.8924
22.1471
14.7512
15.2648
23.6004
27.5456
29.0943
29.4777
29.3307
28.9765
28.5789
28.2159
27.9184
27.6912
27.5247
27.4062
27.3234
27.2662
27.2268
27.1996
27.1807
27.1675
27.1582
27.1518
27.1473
27.1444
27.1427
27.1419
27.2516
27.2518
27.2523
27.2532
27.2546
27.2566
27.2596
27.2641
27.271
27.2819
27.299
27.3263
27.3695
27.4365
27.5369
27.6767
27.8433
27.973
27.9085
27.3438
25.7186
21.9692
14.6744
15.2012
23.4086
27.3472
28.9219
29.3327
29.2067
28.8664
28.4771
28.1187
27.8235
27.5971
27.4308
27.3123
27.2294
27.172
27.1326
27.1053
27.0863
27.0731
27.0638
27.0574
27.053
27.0501
27.0483
27.0475
40.1124
44.6817
40.9181
40.5875
47.641
45.1564
40.4016
49.0107
47.8873
39.934
49.4663
49.1014
39.2041
37.5208
34.7372
49.5385
49.4901
38.1467
30.9842
36.4887
34.0219
49.3726
49.5314
38.6893
64.901
38.3473
64.6038
40.4479
38.0673
48.275
42.569
43.8364
39.4712
38.227
52.7601
50.6681
46.5456
40.7896
39.6495
37.4824
39.9459
39.9521
40.5375
41.5255
42.645
43.0311
48.4148
47.9314
41.7801
40.9326
37.6751
39.7287
39.9282
40.2011
37.1871
39.6442
42.3627
42.1773
37.8509
39.3359
39.6903
39.6093
30.4366
33.8483
66.4815
46.6904
44.6587
37.997
38.6362
39.2685
38.6898
23.5959
26.4022
32.3788
48.4657
47.6354
35.9031
32.0362
31.1521
44.1343
45.1705
41.1215
43.8425
50.4223
48.5501
43.1316
47.5888
48.4609
43.9686
42.6207
45.1064
44.14
48.8034
52.7014
46.7502
47.1906
44.1222