/*--------------------------------*- C++ -*----------------------------------*\
| =========                 |                                                 |
| \\      /  F ield         | foam-extend: Open Source CFD                    |
|  \\    /   O peration     | Version:     4.1                                |
|   \\  /    A nd           | Web:         http://www.foam-extend.org         |
|    \\/     M anipulation  |                                                 |
\*---------------------------------------------------------------------------*/
FoamFile
{
    version     2.0;
    format      ascii;
    class       volScalarField;
    location    "0";
    object      nut;
}
// * * * * * * * * * * * * * * * * * * * * * * * * * * * * * * * * * * * * * //

dimensions      [0 2 -1 0 0 0 0];

internalField   nonuniform List<scalar> 
35801
(
1.15548
1.15548
1.15548
1.15548
1.15548
1.15548
1.15548
1.15548
1.15548
1.15548
1.15548
1.15548
1.15548
1.15548
1.15548
1.15549
1.15549
1.1555
1.15551
1.15552
1.15553
1.15555
1.15556
1.15557
1.15558
1.15558
1.15557
1.15556
1.15555
1.15553
1.15552
1.15551
1.1555
1.15549
1.15549
1.15548
1.15548
1.15548
1.15548
1.15548
1.15548
1.15548
1.15548
1.15548
1.15548
1.15548
1.15548
1.15548
1.15456
1.15456
1.15456
1.15456
1.15456
1.15456
1.15456
1.15456
1.15457
1.15457
1.15457
1.15457
1.15457
1.15457
1.15458
1.15459
1.1546
1.15461
1.15464
1.15466
1.15469
1.15472
1.15475
1.15477
1.15478
1.15478
1.15477
1.15475
1.15472
1.15469
1.15466
1.15464
1.15462
1.1546
1.15459
1.15458
1.15458
1.15457
1.15457
1.15457
1.15457
1.15457
1.15457
1.15456
1.15456
1.15456
1.15456
1.15456
1.15366
1.15366
1.15366
1.15366
1.15366
1.15366
1.15366
1.15366
1.15366
1.15366
1.15366
1.15366
1.15367
1.15367
1.15368
1.1537
1.15372
1.15374
1.15378
1.15382
1.15387
1.15392
1.15396
1.154
1.15402
1.15402
1.154
1.15396
1.15392
1.15387
1.15382
1.15378
1.15375
1.15372
1.1537
1.15369
1.15368
1.15367
1.15367
1.15366
1.15366
1.15366
1.15366
1.15366
1.15366
1.15366
1.15366
1.15366
1.15276
1.15276
1.15276
1.15276
1.15276
1.15276
1.15276
1.15276
1.15276
1.15276
1.15276
1.15276
1.15277
1.15278
1.1528
1.15282
1.15285
1.15289
1.15295
1.15301
1.15308
1.15315
1.15322
1.15327
1.15329
1.15329
1.15327
1.15322
1.15315
1.15308
1.15301
1.15295
1.1529
1.15286
1.15282
1.1528
1.15279
1.15277
1.15277
1.15276
1.15276
1.15276
1.15276
1.15276
1.15276
1.15276
1.15276
1.15276
1.15186
1.15186
1.15186
1.15186
1.15186
1.15186
1.15186
1.15186
1.15186
1.15186
1.15186
1.15187
1.15188
1.1519
1.15192
1.15195
1.152
1.15211
1.15218
1.15227
1.15237
1.15247
1.15256
1.15263
1.15266
1.15266
1.15262
1.15255
1.15247
1.15237
1.15228
1.15215
1.15207
1.15201
1.15196
1.15193
1.1519
1.15189
1.15188
1.15187
1.15186
1.15186
1.15186
1.15186
1.15186
1.15186
1.15186
1.15186
1.15096
1.15096
1.15096
1.15096
1.15096
1.15096
1.15096
1.15096
1.15097
1.15097
1.15097
1.15098
1.151
1.15102
1.15105
1.15111
1.15124
1.15161
1.15173
1.15184
1.15195
1.15208
1.15219
1.15227
1.15232
1.15233
1.15229
1.15221
1.15211
1.152
1.15188
1.15145
1.15128
1.15118
1.15112
1.15107
1.15103
1.15101
1.15099
1.15098
1.15097
1.15097
1.15097
1.15096
1.15096
1.15096
1.15096
1.15096
1.15007
1.15007
1.15007
1.15007
1.15007
1.15007
1.15007
1.15007
1.15008
1.15008
1.15009
1.1501
1.15012
1.15016
1.15021
1.15031
1.15074
1.15085
1.151
1.15113
1.1513
1.15147
1.15164
1.15177
1.15185
1.15186
1.1518
1.15169
1.15155
1.15139
1.15124
1.15106
1.15055
1.15039
1.15029
1.15022
1.15017
1.15014
1.15011
1.1501
1.15009
1.15008
1.15008
1.15008
1.15007
1.15007
1.15007
1.15007
1.14919
1.14919
1.14919
1.14919
1.14919
1.14919
1.14919
1.14919
1.14919
1.1492
1.14921
1.14923
1.14926
1.1493
1.14938
1.14956
1.14995
1.15013
1.15032
1.15054
1.15079
1.15105
1.15131
1.15151
1.15163
1.15164
1.15155
1.15137
1.15115
1.15092
1.15067
1.15043
1.14989
1.14963
1.14949
1.14939
1.14932
1.14928
1.14925
1.14922
1.14921
1.1492
1.1492
1.14919
1.14919
1.14919
1.14919
1.14919
1.14831
1.14831
1.14831
1.14831
1.14831
1.14831
1.14831
1.14831
1.14832
1.14833
1.14834
1.14837
1.1484
1.14847
1.1486
1.14907
1.14922
1.14945
1.1498
1.15007
1.15042
1.1508
1.15118
1.1515
1.1517
1.15172
1.15159
1.15133
1.151
1.15065
1.15023
1.14988
1.14954
1.14894
1.14872
1.14859
1.14849
1.14843
1.14838
1.14836
1.14834
1.14832
1.14832
1.14831
1.14831
1.14831
1.14831
1.14831
1.14743
1.14743
1.14743
1.14743
1.14743
1.14743
1.14743
1.14744
1.14744
1.14746
1.14748
1.14751
1.14756
1.14765
1.14782
1.14827
1.14853
1.14884
1.14921
1.14966
1.15019
1.15079
1.15143
1.15199
1.15233
1.15238
1.15212
1.15166
1.15111
1.15054
1.14995
1.14943
1.14898
1.14829
1.14799
1.1478
1.14768
1.14759
1.14753
1.14749
1.14747
1.14745
1.14744
1.14744
1.14743
1.14743
1.14743
1.14743
1.14655
1.14655
1.14655
1.14656
1.14656
1.14656
1.14656
1.14657
1.14658
1.14659
1.14662
1.14666
1.14673
1.14684
1.14707
1.14752
1.14787
1.14829
1.14877
1.14941
1.15025
1.1513
1.15249
1.05024
0.967818
0.970419
1.05001
1.15282
1.15177
1.15079
1.14989
1.14913
1.14851
1.14769
1.14729
1.14704
1.14688
1.14677
1.14669
1.14664
1.14661
1.14659
1.14657
1.14657
1.14656
1.14656
1.14656
1.14655
1.14569
1.14569
1.14569
1.14569
1.14569
1.14569
1.14569
1.1457
1.14571
1.14573
1.14577
1.14582
1.14591
1.14606
1.14634
1.1468
1.14726
1.14783
1.14849
1.14941
1.15076
1.15259
0.90964
0.734145
0.650615
0.658511
0.745092
0.896537
1.10458
1.15159
1.15016
1.14902
1.14814
1.14715
1.14664
1.14631
1.1461
1.14596
1.14586
1.1458
1.14576
1.14573
1.14571
1.1457
1.14569
1.14569
1.14569
1.14568
1.14482
1.14482
1.14482
1.14482
1.14482
1.14483
1.14483
1.14484
1.14486
1.14488
1.14493
1.145
1.14511
1.14529
1.14563
1.14612
1.14671
1.14747
1.14837
1.14971
1.15188
0.934259
0.666345
0.482034
0.397048
0.413126
0.507872
0.662255
0.869574
1.1312
1.15083
1.14915
1.1479
1.14668
1.14603
1.14561
1.14534
1.14516
1.14504
1.14496
1.14491
1.14487
1.14485
1.14484
1.14483
1.14482
1.14482
1.14482
1.14396
1.14396
1.14396
1.14396
1.14397
1.14397
1.14398
1.14399
1.14401
1.14404
1.14409
1.14418
1.14432
1.14455
1.14495
1.14548
1.14622
1.14722
1.14844
1.15036
1.11347
0.768679
0.490276
0.291574
0.203268
0.232099
0.335183
0.490071
0.692956
0.957961
1.15198
1.14953
1.1478
1.14628
1.14547
1.14494
1.1446
1.14438
1.14423
1.14413
1.14407
1.14403
1.144
1.14398
1.14397
1.14396
1.14396
1.14396
1.14311
1.14311
1.14311
1.14311
1.14311
1.14312
1.14313
1.14314
1.14317
1.14321
1.14327
1.14337
1.14354
1.14382
1.14429
1.14488
1.14578
1.14706
1.14868
1.15134
1.02382
0.676893
0.388258
0.165261
0.0681463
0.115827
0.223339
0.374295
0.56975
0.827115
1.15346
1.15019
1.14785
1.14595
1.14495
1.1443
1.14388
1.14361
1.14343
1.14331
1.14324
1.14319
1.14315
1.14313
1.14312
1.14311
1.14311
1.1431
1.14226
1.14226
1.14226
1.14226
1.14227
1.14227
1.14228
1.1423
1.14233
1.14238
1.14246
1.1426
1.14279
1.14311
1.14366
1.14432
1.14539
1.14699
1.14907
1.1525
0.995193
0.665858
0.384998
0.131622
0.0656389
0.166761
0.307882
0.493164
0.741497
1.07365
1.15106
1.14803
1.14568
1.14447
1.14369
1.1432
1.14288
1.14267
1.14254
1.14245
1.14239
1.14235
1.14233
1.14231
1.1423
1.1423
1.1423
1.14146
1.14146
1.14146
1.14146
1.14147
1.14147
1.14148
1.1415
1.14154
1.14159
1.14168
1.14203
1.14219
1.1425
1.14306
1.14379
1.14504
1.14697
1.14953
1.1537
1.02331
0.731118
0.517226
0.346461
0.0710995
0.15429
0.281589
0.455695
0.695138
1.02757
1.15206
1.14832
1.14548
1.14409
1.14325
1.14274
1.14242
1.14222
1.14209
1.14201
1.14196
1.14193
1.14191
1.1419
1.1419
1.1419
1.1419
1.14107
1.14106
1.14106
1.14106
1.14105
1.14105
1.14105
1.14105
1.14107
1.1411
1.14117
1.14145
1.14159
1.14188
1.14248
1.14329
1.14472
1.14698
1.15003
1.15482
1.10133
0.836784
0.721834
0.740181
0.0973757
0.168353
0.28488
0.450093
0.682907
1.01633
1.1531
1.14866
1.1453
1.14374
1.14281
1.14228
1.14195
1.14176
1.14163
1.14156
1.14151
1.14149
1.14147
1.14147
1.14147
1.14147
1.14147
1.14065
1.14064
1.14063
1.14063
1.14062
1.1406
1.14059
1.14059
1.14058
1.14059
1.14064
1.14088
1.14099
1.14128
1.14192
1.1428
1.14442
1.14701
1.15051
1.15583
1.16052
0.934979
0.869757
0.631659
0.130534
0.197409
0.310006
0.471168
0.701265
1.03924
1.15407
1.149
1.14514
1.1434
1.1424
1.14183
1.1415
1.1413
1.14118
1.14111
1.14107
1.14105
1.14104
1.14104
1.14104
1.14105
1.14106
1.14024
1.14023
1.14021
1.1402
1.14018
1.14016
1.14014
1.14012
1.1401
1.14009
1.14011
1.14031
1.1404
1.14068
1.14135
1.14232
1.14412
1.14703
1.15095
1.15671
1.16173
1.00288
0.906559
0.525607
0.163856
0.237897
0.354678
0.517311
0.748873
1.09695
1.1549
1.14931
1.14496
1.14306
1.14199
1.1414
1.14106
1.14086
1.14074
1.14067
1.14064
1.14062
1.14062
1.14062
1.14062
1.14063
1.14064
1.13983
1.13981
1.1398
1.13978
1.13975
1.13973
1.13969
1.13966
1.13962
1.13959
1.13959
1.13974
1.13981
1.14008
1.14079
1.14185
1.14383
1.14702
1.15132
1.15747
1.16275
1.04665
0.908674
0.411808
0.0109034
0.201654
0.295495
0.422985
0.591132
0.826873
1.16117
1.15555
1.14953
1.14476
1.14272
1.14159
1.14097
1.14062
1.14042
1.14031
1.14024
1.14021
1.1402
1.14019
1.1402
1.14021
1.14022
1.14023
1.13942
1.1394
1.13938
1.13936
1.13933
1.13929
1.13925
1.1392
1.13915
1.1391
1.13907
1.13918
1.13922
1.13948
1.14022
1.14137
1.14352
1.14699
1.15161
1.15811
1.16358
1.09906
0.912598
0.338049
0.0329851
0.275953
0.387665
0.5253
0.698994
0.938502
1.16201
1.15598
1.14963
1.14452
1.14237
1.14119
1.14055
1.1402
1.14
1.13988
1.13982
1.13979
1.13978
1.13978
1.13979
1.1398
1.13981
1.13983
1.13902
1.139
1.13897
1.13894
1.13891
1.13886
1.13881
1.13875
1.13868
1.13861
1.13855
1.13862
1.13864
1.13889
1.13966
1.14088
1.14319
1.1469
1.15181
1.15863
1.1642
1.15439
0.888681
0.162223
0.0657165
0.438259
0.539458
0.675928
0.849564
1.09823
1.16252
1.15618
1.14961
1.14424
1.14201
1.1408
1.14014
1.13978
1.13958
1.13947
1.1394
1.13938
1.13937
1.13937
1.13938
1.1394
1.13941
1.13943
1.13862
1.1386
1.13857
1.13853
1.13849
1.13844
1.13838
1.13831
1.13822
1.13812
1.13805
1.13807
1.13807
1.13831
1.13909
1.14039
1.14283
1.14677
1.15192
1.159
1.16455
1.15194
0.96676
0.0813457
0.0858364
0.523965
0.773476
0.889205
1.05173
1.15991
1.1627
1.15618
1.14947
1.14392
1.14164
1.1404
1.13974
1.13937
1.13917
1.13906
1.139
1.13897
1.13896
1.13897
1.13898
1.139
1.13902
1.13904
1.13823
1.1382
1.13817
1.13813
1.13808
1.13802
1.13795
1.13787
1.13776
1.13765
1.13755
1.13754
1.1375
1.13773
1.13853
1.13988
1.14245
1.14658
1.15194
1.15922
1.16458
1.14738
0.909651
0.0542719
0.103728
0.540019
0.873265
1.05673
1.13381
1.16054
1.16261
1.156
1.14922
1.14356
1.14125
1.14
1.13933
1.13897
1.13876
1.13865
1.13859
1.13857
1.13856
1.13857
1.13859
1.13861
1.13863
1.13865
1.13784
1.13781
1.13777
1.13773
1.13768
1.13761
1.13753
1.13743
1.13732
1.13718
1.13706
1.13701
1.13696
1.13717
1.13797
1.13936
1.14205
1.14633
1.15188
1.15928
1.16426
1.14038
0.844916
0.0423912
0.119755
0.551156
0.880365
1.05972
1.13493
1.16069
1.16229
1.15566
1.14888
1.14318
1.14086
1.1396
1.13893
1.13856
1.13836
1.13825
1.1382
1.13817
1.13817
1.13818
1.1382
1.13822
1.13824
1.13826
1.13746
1.13743
1.13738
1.13733
1.13727
1.1372
1.13712
1.13701
1.13688
1.13673
1.13658
1.13651
1.13643
1.13662
1.13741
1.13884
1.14161
1.14604
1.15172
1.1592
1.16356
1.13088
0.774542
0.036303
0.134141
0.556806
0.885348
1.06152
1.13539
1.1605
1.1618
1.15521
1.14847
1.14277
1.14045
1.13919
1.13852
1.13817
1.13797
1.13786
1.1378
1.13778
1.13778
1.13779
1.13781
1.13784
1.13786
1.13788
1.13708
1.13704
1.137
1.13694
1.13688
1.1368
1.13671
1.13659
1.13645
1.13628
1.13612
1.13601
1.13591
1.13609
1.13688
1.13832
1.14116
1.1457
1.1515
1.15899
1.16248
1.11893
0.69802
0.0328193
0.147091
0.558889
0.888812
1.0625
1.13539
1.16006
1.16118
1.15467
1.148
1.14234
1.14004
1.13879
1.13812
1.13777
1.13757
1.13747
1.13742
1.1374
1.1374
1.13741
1.13743
1.13746
1.13748
1.13751
1.1367
1.13666
1.13661
1.13656
1.13649
1.1364
1.1363
1.13618
1.13602
1.13584
1.13566
1.13553
1.13542
1.13558
1.13635
1.1378
1.14069
1.14532
1.15122
1.15867
1.16099
1.10464
0.621201
0.0306348
0.158798
0.560195
0.890828
1.06288
1.13507
1.15944
1.16047
1.15408
1.14751
1.14191
1.13963
1.13838
1.13773
1.13737
1.13718
1.13708
1.13703
1.13702
1.13702
1.13703
1.13705
1.13708
1.13711
1.13714
1.13632
1.13629
1.13623
1.13617
1.1361
1.13601
1.1359
1.13577
1.1356
1.13541
1.13522
1.13507
1.13494
1.13509
1.13586
1.1373
1.14022
1.14493
1.15088
1.15824
1.15905
1.08804
0.561241
0.0291701
0.169432
0.561465
0.890956
1.0628
1.13452
1.1587
1.15971
1.15346
1.147
1.14148
1.13921
1.13798
1.13733
1.13698
1.1368
1.1367
1.13665
1.13664
1.13664
1.13666
1.13668
1.13671
1.13674
1.13677
1.13595
1.13591
1.13586
1.13579
1.13572
1.13562
1.13551
1.13537
1.13519
1.13499
1.13479
1.13462
1.13448
1.13462
1.13538
1.13683
1.13977
1.14452
1.15052
1.15773
1.15664
1.06864
0.516636
0.0281656
0.179138
0.562686
0.889102
1.06222
1.13378
1.15789
1.15893
1.15283
1.1465
1.14105
1.13881
1.13758
1.13693
1.13659
1.13641
1.13632
1.13627
1.13626
1.13627
1.13628
1.13631
1.13634
1.13637
1.1364
1.13558
1.13554
1.13549
1.13542
1.13534
1.13524
1.13512
1.13497
1.13479
1.13458
1.13436
1.13418
1.13403
1.13417
1.13493
1.13638
1.13933
1.14412
1.15013
1.15713
1.15371
1.04493
0.481522
0.0275081
0.188042
0.563788
0.885913
1.06105
1.13289
1.15701
1.15814
1.15221
1.14601
1.14063
1.1384
1.13718
1.13654
1.13621
1.13603
1.13594
1.1359
1.13589
1.13589
1.13591
1.13594
1.13597
1.136
1.13603
1.13522
1.13518
1.13512
1.13505
1.13496
1.13486
1.13473
1.13458
1.13439
1.13417
1.13395
1.13375
1.1336
1.13374
1.13451
1.13595
1.13893
1.14375
1.14975
1.15646
1.15013
1.01626
0.452865
0.0271484
0.196245
0.564744
0.882114
1.05925
1.13179
1.15609
1.15735
1.1516
1.14552
1.14022
1.13801
1.13679
1.13615
1.13582
1.13565
1.13556
1.13552
1.13551
1.13552
1.13554
1.13557
1.13561
1.13564
1.13567
1.13485
1.13481
1.13475
1.13468
1.13459
1.13448
1.13435
1.13419
1.134
1.13378
1.13354
1.13334
1.13319
1.13333
1.1341
1.13555
1.13855
1.1434
1.14937
1.1557
1.1457
0.985105
0.429013
0.0270621
0.203834
0.565549
0.878111
1.05687
1.1305
1.15512
1.15658
1.15101
1.14506
1.13981
1.13761
1.1364
1.13577
1.13544
1.13527
1.13518
1.13515
1.13514
1.13515
1.13518
1.13521
1.13524
1.13528
1.13531
1.13449
1.13445
1.13438
1.13431
1.13422
1.13411
1.13398
1.13381
1.13361
1.13338
1.13314
1.13293
1.13278
1.13293
1.13371
1.13517
1.13819
1.14307
1.149
1.15483
1.14011
0.954574
0.408915
0.0272315
0.210883
0.566211
0.87408
1.05405
1.12902
1.15411
1.15582
1.15044
1.1446
1.13942
1.13723
1.13601
1.13538
1.13506
1.13489
1.13481
1.13478
1.13477
1.13479
1.13481
1.13484
1.13488
1.13492
1.13495
1.13413
1.13409
1.13402
1.13394
1.13385
1.13374
1.1336
1.13343
1.13323
1.133
1.13275
1.13253
1.13239
1.13255
1.13334
1.13482
1.13786
1.14276
1.14863
1.15381
1.13315
0.926096
0.391836
0.0276399
0.21745
0.566746
0.870093
1.05087
1.12738
1.15307
1.15507
1.14988
1.14416
1.13903
1.13685
1.13563
1.135
1.13468
1.13451
1.13443
1.13441
1.1344
1.13442
1.13445
1.13448
1.13452
1.13455
1.13459
1.13377
1.13373
1.13366
1.13358
1.13349
1.13337
1.13323
1.13306
1.13285
1.13261
1.13237
1.13214
1.132
1.13217
1.13298
1.13447
1.13755
1.14246
1.14825
1.1526
1.1248
0.899956
0.377228
0.0282701
0.223589
0.567168
0.866166
1.04746
1.12559
1.15199
1.15434
1.14934
1.14374
1.13865
1.13647
1.13526
1.13462
1.1343
1.13414
1.13406
1.13404
1.13404
1.13405
1.13408
1.13412
1.13415
1.13419
1.13422
1.13342
1.13337
1.1333
1.13322
1.13312
1.13301
1.13286
1.13269
1.13248
1.13223
1.13198
1.13176
1.13162
1.1318
1.13263
1.13414
1.13725
1.14218
1.14785
1.15114
1.11529
0.876036
0.36467
0.0291056
0.229344
0.56749
0.862303
1.0439
1.12366
1.15088
1.15361
1.14881
1.14332
1.13827
1.1361
1.13488
1.13425
1.13392
1.13376
1.13369
1.13367
1.13367
1.13369
1.13372
1.13375
1.13379
1.13383
1.13387
1.13306
1.13301
1.13294
1.13286
1.13276
1.13264
1.1325
1.13232
1.1321
1.13186
1.13161
1.13138
1.13125
1.13144
1.13229
1.13382
1.13696
1.1419
1.14741
1.14937
1.10491
0.854133
0.353833
0.0301307
0.234752
0.567728
0.858515
1.04023
1.12163
1.14974
1.15288
1.14829
1.14291
1.1379
1.13573
1.13451
1.13387
1.13355
1.13339
1.13332
1.1333
1.1333
1.13332
1.13335
1.13339
1.13343
1.13347
1.13351
1.13271
1.13266
1.13259
1.1325
1.1324
1.13228
1.13213
1.13195
1.13173
1.13149
1.13123
1.131
1.13088
1.13109
1.13196
1.13351
1.13668
1.14162
1.14693
1.14726
1.09397
0.834042
0.344454
0.0313316
0.239845
0.567892
0.854801
1.03651
1.1195
1.14858
1.15216
1.14778
1.14251
1.13754
1.13537
1.13414
1.1335
1.13318
1.13302
1.13295
1.13293
1.13294
1.13296
1.13299
1.13303
1.13307
1.13311
1.13315
1.13235
1.1323
1.13223
1.13215
1.13204
1.13192
1.13177
1.13159
1.13137
1.13112
1.13086
1.13063
1.13052
1.13074
1.13163
1.13321
1.1364
1.14134
1.14639
1.14479
1.08272
0.815576
0.33632
0.0326969
0.244654
0.567992
0.851161
1.03275
1.11728
1.14739
1.15145
1.14728
1.14211
1.13718
1.13501
1.13378
1.13313
1.1328
1.13265
1.13258
1.13256
1.13257
1.13259
1.13263
1.13267
1.13271
1.13275
1.13279
1.132
1.13195
1.13188
1.13179
1.13169
1.13156
1.13141
1.13123
1.131
1.13075
1.13049
1.13027
1.13016
1.1304
1.13131
1.13291
1.13614
1.14105
1.14576
1.14195
1.07136
0.798574
0.329257
0.0342166
0.249203
0.568037
0.847596
1.02898
1.115
1.14617
1.15074
1.14678
1.14172
1.13683
1.13465
1.13341
1.13276
1.13244
1.13228
1.13221
1.1322
1.13221
1.13223
1.13227
1.13231
1.13235
1.13239
1.13243
1.13165
1.1316
1.13153
1.13144
1.13133
1.13121
1.13105
1.13087
1.13064
1.13039
1.13013
1.1299
1.1298
1.13006
1.131
1.13262
1.13587
1.14074
1.14505
1.13876
1.06003
0.782896
0.323124
0.0358827
0.253514
0.568035
0.844104
1.02521
1.11265
1.14492
1.15002
1.14629
1.14134
1.13648
1.1343
1.13305
1.1324
1.13207
1.13191
1.13185
1.13183
1.13184
1.13187
1.1319
1.13195
1.13199
1.13203
1.13207
1.1313
1.13125
1.13118
1.13109
1.13098
1.13085
1.1307
1.13051
1.13028
1.13003
1.12977
1.12955
1.12945
1.12973
1.13068
1.13234
1.13561
1.14042
1.14423
1.13524
1.04884
0.768413
0.317799
0.0376882
0.257607
0.567993
0.840689
1.02145
1.11026
1.14366
1.14931
1.14581
1.14096
1.13614
1.13395
1.1327
1.13203
1.1317
1.13154
1.13148
1.13146
1.13148
1.1315
1.13154
1.13158
1.13163
1.13167
1.13171
1.13095
1.1309
1.13083
1.13074
1.13063
1.1305
1.13034
1.13015
1.12992
1.12967
1.12941
1.12919
1.12911
1.12939
1.13038
1.13205
1.13534
1.14008
1.1433
1.13143
1.03785
0.755017
0.313184
0.039627
0.261501
0.567916
0.83735
1.0177
1.10782
1.14236
1.1486
1.14532
1.14058
1.1358
1.1336
1.13234
1.13167
1.13134
1.13118
1.13111
1.1311
1.13111
1.13114
1.13118
1.13122
1.13127
1.13132
1.13135
1.1306
1.13055
1.13048
1.13039
1.13028
1.13015
1.12999
1.12979
1.12957
1.12931
1.12905
1.12883
1.12876
1.12907
1.13007
1.13177
1.13508
1.13971
1.14225
1.12398
1.0135
0.715618
0.280657
0.046256
0.283572
0.585526
0.847288
1.02132
1.10836
1.141
1.14788
1.14484
1.14021
1.13545
1.13326
1.13199
1.13131
1.13097
1.13081
1.13075
1.13074
1.13075
1.13078
1.13082
1.13086
1.13091
1.13096
1.13099
1.13025
1.1302
1.13013
1.13004
1.12993
1.1298
1.12963
1.12944
1.12921
1.12895
1.1287
1.12848
1.12842
1.12874
1.12978
1.13209
1.13481
1.13931
1.14017
1.11931
1.00248
0.704088
0.277556
0.0488555
0.286733
0.584989
0.843846
1.01757
1.10586
1.13954
1.14712
1.14436
1.13865
1.13512
1.13292
1.13164
1.13095
1.13061
1.13045
1.13038
1.13037
1.13039
1.13042
1.13046
1.1305
1.13055
1.1306
1.13063
1.12991
1.12986
1.12978
1.12969
1.12958
1.12945
1.12928
1.12909
1.12886
1.1286
1.12834
1.12813
1.12808
1.12842
1.12949
1.13181
1.13455
1.13885
1.13841
1.10382
0.959604
0.636849
0.221513
0.0687853
0.324468
0.61727
0.864706
1.02734
1.10893
1.1396
1.14633
1.14387
1.1383
1.13479
1.13258
1.13129
1.1306
1.13025
1.13009
1.13002
1.13001
1.13003
1.13006
1.1301
1.13015
1.13019
1.13024
1.13027
1.12956
1.12951
1.12944
1.12934
1.12923
1.1291
1.12893
1.12874
1.12851
1.12825
1.12799
1.12779
1.12775
1.1281
1.1292
1.13154
1.13517
1.13833
1.13649
1.0978
0.948607
0.627164
0.220614
0.071626
0.326806
0.616164
0.861135
1.02366
1.10648
1.13824
1.14554
1.14214
1.13795
1.13447
1.13225
1.13095
1.13025
1.12989
1.12972
1.12966
1.12965
1.12967
1.1297
1.12974
1.12979
1.12984
1.12988
1.12991
1.12921
1.12917
1.12909
1.129
1.12889
1.12875
1.12859
1.12839
1.12816
1.1279
1.12764
1.12744
1.12741
1.12779
1.12891
1.13127
1.1348
1.13736
1.12611
1.05773
0.856667
0.496957
0.13554
0.120745
0.393111
0.673399
0.899277
1.04264
1.11314
1.13911
1.14421
1.14169
1.1376
1.13414
1.13191
1.1306
1.12989
1.12953
1.12937
1.1293
1.12929
1.12931
1.12934
1.12938
1.12943
1.12948
1.12952
1.12956
1.12887
1.12882
1.12875
1.12865
1.12854
1.1284
1.12824
1.12804
1.12781
1.12755
1.12729
1.1271
1.12708
1.12747
1.12862
1.13099
1.13441
1.13627
1.12266
1.04977
0.845593
0.49046
0.137129
0.123176
0.394589
0.671644
0.895606
1.03915
1.11083
1.13782
1.14349
1.14123
1.13725
1.13382
1.13159
1.13026
1.12954
1.12918
1.12901
1.12894
1.12893
1.12895
1.12898
1.12902
1.12907
1.12912
1.12917
1.1292
1.12853
1.12848
1.12841
1.12831
1.1282
1.12806
1.12789
1.12769
1.12746
1.1272
1.12695
1.12676
1.12675
1.12716
1.12834
1.13071
1.13399
1.13511
1.11912
1.04197
0.835201
0.484688
0.138729
0.12559
0.396005
0.669958
0.892041
1.03572
1.10852
1.13651
1.14275
1.14077
1.1369
1.1335
1.13126
1.12992
1.12919
1.12882
1.12865
1.12858
1.12857
1.12859
1.12862
1.12867
1.12871
1.12876
1.12881
1.12884
1.12819
1.12814
1.12806
1.12797
1.12785
1.12772
1.12755
1.12735
1.12711
1.12686
1.12661
1.12642
1.12643
1.12686
1.12806
1.13042
1.13354
1.13387
1.11552
1.03434
0.825452
0.479542
0.140339
0.127989
0.397364
0.668337
0.888576
1.03233
1.1062
1.13518
1.14201
1.14031
1.13655
1.13318
1.13093
1.12959
1.12885
1.12847
1.12829
1.12822
1.12821
1.12823
1.12827
1.12831
1.12836
1.12841
1.12845
1.12849
1.12785
1.1278
1.12772
1.12763
1.12751
1.12737
1.12721
1.127
1.12677
1.12651
1.12626
1.12608
1.1261
1.12655
1.12777
1.13013
1.13307
1.13256
1.11185
1.0269
0.816298
0.474936
0.141961
0.130372
0.398673
0.666778
0.885208
1.02899
1.10388
1.13384
1.14126
1.13984
1.1362
1.13286
1.13061
1.12925
1.1285
1.12812
1.12794
1.12787
1.12786
1.12787
1.12791
1.12795
1.128
1.12805
1.1281
1.12813
1.12751
1.12746
1.12739
1.12729
1.12717
1.12703
1.12686
1.12666
1.12643
1.12617
1.12592
1.12575
1.12578
1.12625
1.12749
1.12983
1.13256
1.13118
1.10814
1.01965
0.807696
0.470801
0.143594
0.13274
0.399935
0.665276
0.881935
1.0257
1.10157
1.13248
1.1405
1.13938
1.13585
1.13255
1.13029
1.12892
1.12816
1.12777
1.12759
1.12751
1.1275
1.12752
1.12755
1.1276
1.12765
1.1277
1.12775
1.12778
1.12717
1.12712
1.12705
1.12695
1.12683
1.12669
1.12652
1.12632
1.12608
1.12583
1.12558
1.12542
1.12546
1.12594
1.12721
1.12952
1.13202
1.12974
1.10439
1.01259
0.799603
0.467083
0.145239
0.135095
0.401153
0.66383
0.878752
1.02245
1.09925
1.13112
1.13973
1.13891
1.1355
1.13224
1.12997
1.12859
1.12782
1.12742
1.12723
1.12716
1.12715
1.12716
1.1272
1.12725
1.1273
1.12735
1.12739
1.12742
1.12683
1.12678
1.12671
1.12661
1.12649
1.12635
1.12618
1.12598
1.12574
1.12549
1.12525
1.12509
1.12514
1.12564
1.12692
1.1292
1.13145
1.12823
1.10061
1.00572
0.791979
0.463733
0.146895
0.137439
0.402331
0.662435
0.875656
1.01926
1.09694
1.12974
1.13895
1.13843
1.13515
1.13192
1.12966
1.12827
1.12748
1.12708
1.12688
1.12681
1.12679
1.12681
1.12685
1.12689
1.12694
1.12699
1.12704
1.12707
1.12649
1.12645
1.12637
1.12628
1.12616
1.12602
1.12584
1.12564
1.12541
1.12515
1.12491
1.12476
1.12482
1.12534
1.12664
1.12888
1.13085
1.12667
1.09682
0.999042
0.784789
0.460708
0.148562
0.139772
0.403472
0.66109
0.872644
1.01612
1.09464
1.12835
1.13816
1.13795
1.1348
1.13161
1.12934
1.12794
1.12715
1.12673
1.12654
1.12646
1.12644
1.12646
1.1265
1.12654
1.12659
1.12664
1.12669
1.12672
1.12616
1.12611
1.12604
1.12594
1.12582
1.12568
1.12551
1.1253
1.12507
1.12482
1.12458
1.12443
1.12451
1.12505
1.12636
1.12854
1.13022
1.12505
1.09302
0.992555
0.778001
0.457972
0.150241
0.142095
0.404578
0.659793
0.869713
1.01302
1.09234
1.12695
1.13736
1.13747
1.13445
1.1313
1.12903
1.12762
1.12681
1.12639
1.12619
1.12611
1.12609
1.12611
1.12614
1.12619
1.12624
1.12629
1.12634
1.12637
1.12582
1.12578
1.1257
1.12561
1.12549
1.12534
1.12517
1.12497
1.12473
1.12448
1.12425
1.12411
1.12419
1.12475
1.12607
1.12819
1.12956
1.12339
1.08922
0.986254
0.771581
0.455494
0.15193
0.144411
0.405654
0.658542
0.866861
1.00998
1.09005
1.12554
1.13656
1.13698
1.13409
1.13099
1.12872
1.12729
1.12648
1.12605
1.12584
1.12576
1.12574
1.12576
1.12579
1.12584
1.12589
1.12594
1.12599
1.12601
1.12549
1.12545
1.12537
1.12527
1.12515
1.12501
1.12484
1.12463
1.1244
1.12415
1.12392
1.12378
1.12388
1.12446
1.12578
1.12784
1.12887
1.12168
1.08543
0.980135
0.765504
0.453244
0.153631
0.14672
0.406701
0.657334
0.864086
1.00699
1.08777
1.12412
1.13574
1.13649
1.13374
1.13068
1.12841
1.12697
1.12615
1.12571
1.1255
1.12541
1.12539
1.12541
1.12545
1.12549
1.12554
1.12559
1.12564
1.12567
1.12516
1.12512
1.12504
1.12494
1.12482
1.12468
1.1245
1.1243
1.12406
1.12381
1.12359
1.12346
1.12358
1.12417
1.12549
1.12747
1.12815
1.11992
1.08165
0.974193
0.759742
0.451199
0.155343
0.149023
0.407721
0.65617
0.861384
1.00404
1.0855
1.12269
1.13492
1.13599
1.13339
1.13038
1.12811
1.12666
1.12582
1.12537
1.12516
1.12507
1.12505
1.12506
1.1251
1.12514
1.12519
1.12525
1.12529
1.12532
1.12483
1.12478
1.12471
1.12461
1.12449
1.12435
1.12417
1.12397
1.12373
1.12348
1.12326
1.12314
1.12327
1.12387
1.1252
1.12709
1.1274
1.11813
1.07788
0.968423
0.754271
0.449337
0.157065
0.151322
0.408719
0.655046
0.858754
1.00115
1.08324
1.12126
1.13409
1.13549
1.13303
1.13007
1.1278
1.12634
1.12549
1.12504
1.12482
1.12472
1.1247
1.12472
1.12475
1.1248
1.12485
1.1249
1.12494
1.12497
1.1245
1.12446
1.12438
1.12428
1.12416
1.12402
1.12384
1.12364
1.1234
1.12316
1.12294
1.12282
1.12296
1.12358
1.12491
1.1267
1.12663
1.11629
1.07413
0.962817
0.74907
0.447639
0.158798
0.153618
0.409695
0.653962
0.856194
0.998304
1.081
1.11982
1.13325
1.13498
1.13267
1.12976
1.1275
1.12603
1.12517
1.1247
1.12448
1.12438
1.12436
1.12437
1.12441
1.12445
1.1245
1.12455
1.1246
1.12462
1.12417
1.12413
1.12405
1.12395
1.12383
1.12369
1.12351
1.12331
1.12307
1.12283
1.12261
1.12251
1.12266
1.12329
1.12461
1.1263
1.12582
1.11443
1.0704
0.957371
0.744118
0.446087
0.160541
0.155911
0.410653
0.652917
0.853701
0.995508
1.07877
1.11837
1.1324
1.13447
1.13231
1.12945
1.1272
1.12572
1.12484
1.12437
1.12414
1.12404
1.12401
1.12403
1.12406
1.12411
1.12416
1.12421
1.12425
1.12428
1.12384
1.1238
1.12373
1.12363
1.12351
1.12336
1.12318
1.12298
1.12274
1.1225
1.12229
1.12219
1.12236
1.123
1.12431
1.12589
1.12498
1.11253
1.0667
0.952079
0.739396
0.444665
0.162295
0.158203
0.411594
0.65191
0.851275
0.992761
1.07655
1.11692
1.13154
1.13395
1.13195
1.12915
1.1269
1.12541
1.12452
1.12404
1.1238
1.1237
1.12367
1.12368
1.12372
1.12376
1.12381
1.12387
1.12391
1.12394
1.12352
1.12348
1.1234
1.1233
1.12318
1.12303
1.12286
1.12265
1.12242
1.12218
1.12197
1.12188
1.12206
1.12272
1.12401
1.12546
1.12412
1.11061
1.06303
0.946933
0.734887
0.443361
0.164059
0.160496
0.412521
0.65094
0.848912
0.990062
1.07436
1.11547
1.13068
1.13343
1.13158
1.12884
1.1266
1.1251
1.1242
1.12371
1.12347
1.12336
1.12333
1.12334
1.12338
1.12342
1.12347
1.12352
1.12357
1.12359
1.12319
1.12315
1.12308
1.12298
1.12286
1.12271
1.12253
1.12233
1.12209
1.12185
1.12165
1.12157
1.12176
1.12243
1.12371
1.12502
1.12323
1.10866
1.05939
0.941928
0.730575
0.442161
0.165832
0.162789
0.413436
0.650007
0.846613
0.987411
1.07218
1.11401
1.1298
1.1329
1.13122
1.12854
1.1263
1.12479
1.12389
1.12339
1.12313
1.12302
1.12299
1.123
1.12304
1.12308
1.12313
1.12318
1.12322
1.12325
1.12287
1.12283
1.12275
1.12265
1.12253
1.12238
1.12221
1.122
1.12177
1.12153
1.12133
1.12126
1.12146
1.12214
1.1234
1.12457
1.12232
1.10668
1.05577
0.937057
0.726444
0.441054
0.167615
0.165086
0.41434
0.649109
0.844375
0.984809
1.07001
1.11255
1.12892
1.13237
1.13085
1.12823
1.126
1.12449
1.12357
1.12306
1.1228
1.12269
1.12266
1.12266
1.1227
1.12274
1.12279
1.12284
1.12288
1.12291
1.12255
1.12251
1.12243
1.12233
1.12221
1.12206
1.12188
1.12168
1.12145
1.12121
1.12102
1.12095
1.12117
1.12185
1.12308
1.1241
1.12138
1.10469
1.05219
0.932315
0.722482
0.440029
0.169408
0.167385
0.415237
0.648247
0.842196
0.982254
1.06787
1.11109
1.12804
1.13183
1.13048
1.12792
1.12571
1.12418
1.12326
1.12274
1.12247
1.12236
1.12232
1.12233
1.12236
1.1224
1.12245
1.1225
1.12255
1.12257
1.12223
1.12218
1.12211
1.12201
1.12189
1.12174
1.12156
1.12136
1.12113
1.12089
1.12071
1.12065
1.12087
1.12157
1.12277
1.12362
1.12042
1.10267
1.04865
0.927695
0.718674
0.439079
0.17121
0.16969
0.416126
0.64742
0.840077
0.979746
1.06574
1.10963
1.12714
1.13128
1.13011
1.12762
1.12541
1.12388
1.12294
1.12242
1.12215
1.12202
1.12198
1.12199
1.12202
1.12207
1.12212
1.12217
1.12221
1.12223
1.12191
1.12187
1.12179
1.12169
1.12157
1.12142
1.12124
1.12104
1.12081
1.12058
1.12039
1.12034
1.12058
1.12128
1.12245
1.12313
1.11943
1.10064
1.04513
0.92319
0.71501
0.438193
0.173021
0.172
0.417012
0.646628
0.838015
0.977286
1.06364
1.10817
1.12624
1.13074
1.12974
1.12731
1.12512
1.12358
1.12263
1.1221
1.12182
1.12169
1.12165
1.12166
1.12169
1.12173
1.12178
1.12183
1.12187
1.1219
1.12159
1.12155
1.12147
1.12137
1.12125
1.1211
1.12092
1.12072
1.12049
1.12026
1.12008
1.12004
1.12029
1.12099
1.12212
1.12263
1.11842
1.09859
1.04165
0.918796
0.711477
0.437365
0.17484
0.174317
0.417895
0.64587
0.83601
0.974872
1.06155
1.10671
1.12534
1.13018
1.12936
1.127
1.12483
1.12329
1.12232
1.12178
1.12149
1.12136
1.12132
1.12132
1.12135
1.1214
1.12145
1.1215
1.12154
1.12156
1.12128
1.12124
1.12116
1.12106
1.12094
1.12079
1.12061
1.12041
1.12018
1.11995
1.11978
1.11975
1.12
1.12071
1.12179
1.12212
1.11739
1.09653
1.03822
0.914517
0.708072
0.436589
0.176668
0.176643
0.418777
0.645149
0.834066
0.972514
1.0595
1.10526
1.12443
1.12963
1.12899
1.1267
1.12454
1.123
1.12202
1.12147
1.12118
1.12104
1.121
1.121
1.12103
1.12107
1.12112
1.12117
1.12121
1.12123
1.12101
1.12097
1.1209
1.1208
1.12067
1.12052
1.12034
1.12014
1.11991
1.11969
1.11952
1.1195
1.11976
1.12047
1.12151
1.12165
1.11643
1.0946
1.03501
0.910538
0.704909
0.435883
0.17849
0.178959
0.419655
0.644507
0.832279
0.970339
1.0576
1.10393
1.12361
1.12914
1.12866
1.12645
1.12431
1.12275
1.12177
1.12121
1.12091
1.12077
1.12072
1.12072
1.12075
1.12079
1.12084
1.12089
1.12093
1.12095
0.294582
0.0612376
0.0553798
0.752627
0.0880248
0.0638544
0.645639
0.12218
0.0918578
0.539546
0.152649
0.126392
0.426041
0.00917169
0.0105186
0.185508
0.156345
0.344483
0.022381
0.0094149
0.0312194
0.249279
0.190808
0.127144
0.00114672
0.0709267
0.00080485
0.0576473
0.105671
0.0299339
0.0223933