/*--------------------------------*- C++ -*----------------------------------*\
| =========                 |                                                 |
| \\      /  F ield         | foam-extend: Open Source CFD                    |
|  \\    /   O peration     | Version:     4.1                                |
|   \\  /    A nd           | Web:         http://www.foam-extend.org         |
|    \\/     M anipulation  |                                                 |
\*---------------------------------------------------------------------------*/
FoamFile
{
    version     2.0;
    format      ascii;
    class       volScalarField;
    location    "0";
    object      omega;
}
// * * * * * * * * * * * * * * * * * * * * * * * * * * * * * * * * * * * * * //

dimensions      [0 0 -1 0 0 0 0];

internalField   nonuniform List<scalar> 
35801
(
31.8771
31.8771
31.8771
31.8771
31.8771
31.8771
31.8771
31.8771
31.8771
31.8771
31.8772
31.8772
31.8772
31.8773
31.8773
31.8775
31.8777
31.8779
31.8783
31.8787
31.8792
31.8797
31.8802
31.8806
31.8808
31.8808
31.8806
31.8802
31.8797
31.8792
31.8787
31.8783
31.878
31.8777
31.8775
31.8774
31.8773
31.8772
31.8772
31.8772
31.8772
31.8771
31.8771
31.8771
31.8771
31.8771
31.8771
31.8771
31.7512
31.7512
31.7512
31.7512
31.7512
31.7512
31.7512
31.7512
31.7512
31.7512
31.7512
31.7512
31.7513
31.7514
31.7516
31.7519
31.7523
31.7529
31.7536
31.7545
31.7555
31.7566
31.7576
31.7584
31.7589
31.7589
31.7584
31.7577
31.7567
31.7556
31.7546
31.7537
31.753
31.7524
31.752
31.7517
31.7515
31.7514
31.7513
31.7512
31.7512
31.7512
31.7512
31.7512
31.7512
31.7512
31.7512
31.7512
31.6262
31.6262
31.6262
31.6262
31.6262
31.6262
31.6262
31.6262
31.6262
31.6262
31.6262
31.6263
31.6264
31.6266
31.627
31.6274
31.6281
31.629
31.6302
31.6316
31.6333
31.635
31.6366
31.6379
31.6385
31.6385
31.6379
31.6367
31.6352
31.6335
31.6319
31.6305
31.6293
31.6284
31.6277
31.6272
31.6268
31.6266
31.6264
31.6263
31.6263
31.6262
31.6262
31.6262
31.6262
31.6262
31.6262
31.6262
31.5022
31.5022
31.5022
31.5022
31.5022
31.5021
31.5022
31.5022
31.5022
31.5022
31.5023
31.5024
31.5026
31.5029
31.5034
31.5041
31.5051
31.5065
31.5083
31.5104
31.5129
31.5154
31.5176
31.5194
31.5204
31.5204
31.5195
31.5179
31.5157
31.5133
31.511
31.5089
31.5071
31.5057
31.5046
31.5038
31.5033
31.5029
31.5026
31.5025
31.5023
31.5023
31.5022
31.5022
31.5022
31.5022
31.5022
31.5022
31.3791
31.3791
31.3791
31.3791
31.3791
31.3791
31.3791
31.3791
31.3791
31.3792
31.3793
31.3794
31.3797
31.3802
31.3809
31.382
31.3835
31.3866
31.3891
31.3922
31.3957
31.3992
31.4023
31.4048
31.4061
31.4062
31.405
31.4027
31.3997
31.3964
31.3932
31.3891
31.3865
31.3844
31.3828
31.3817
31.3808
31.3803
31.3799
31.3796
31.3794
31.3793
31.3793
31.3792
31.3792
31.3792
31.3791
31.3791
31.257
31.257
31.257
31.257
31.257
31.257
31.257
31.257
31.257
31.2571
31.2572
31.2575
31.2579
31.2586
31.2596
31.2612
31.2653
31.3231
31.3277
31.3314
31.3356
31.3398
31.3437
31.3467
31.3485
31.3488
31.3475
31.3449
31.3414
31.3374
31.3332
31.2736
31.2679
31.2648
31.2625
31.2608
31.2596
31.2588
31.2582
31.2578
31.2575
31.2574
31.2572
31.2572
31.2571
31.2571
31.2571
31.2571
31.1359
31.1359
31.1359
31.1359
31.1359
31.1358
31.1358
31.1358
31.1359
31.136
31.1362
31.1365
31.1371
31.138
31.1395
31.1426
31.202
31.2026
31.209
31.2146
31.2207
31.2269
31.2327
31.2374
31.2402
31.2408
31.2392
31.2356
31.2305
31.2244
31.2179
31.2142
31.1525
31.1471
31.1438
31.1414
31.1397
31.1384
31.1376
31.137
31.1366
31.1364
31.1362
31.1361
31.136
31.136
31.136
31.1359
31.0157
31.0157
31.0157
31.0157
31.0157
31.0156
31.0156
31.0156
31.0157
31.0158
31.0161
31.0166
31.0173
31.0186
31.0207
31.0263
31.0807
31.0853
31.0935
31.1025
31.1115
31.1208
31.1297
31.1369
31.1413
31.1422
31.1396
31.1339
31.1262
31.1174
31.1069
31.0997
31.0402
31.0314
31.0268
31.0234
31.021
31.0193
31.0181
31.0173
31.0168
31.0164
31.0162
31.016
31.0159
31.0158
31.0158
31.0158
30.8964
30.8964
30.8964
30.8964
30.8964
30.8963
30.8963
30.8963
30.8964
30.8966
30.8969
30.8976
30.8986
30.9004
30.9041
30.9641
30.9634
30.9705
31.0074
31.018
31.0301
31.0432
31.0562
31.0672
31.0743
31.076
31.0722
31.0641
31.0531
31.0406
31.0022
30.9896
30.9827
30.9191
30.9116
30.9069
30.9036
30.9013
30.8997
30.8986
30.8979
30.8974
30.8971
30.8968
30.8967
30.8966
30.8965
30.8965
30.7781
30.7781
30.7781
30.778
30.778
30.778
30.778
30.778
30.7781
30.7783
30.7788
30.7796
30.781
30.7833
30.7885
30.845
30.8489
30.8586
30.8946
30.9237
30.9423
30.9624
30.9836
31.0026
31.015
31.0175
31.0102
30.9959
30.9779
30.9479
30.9043
30.8847
30.8727
30.8088
30.7984
30.792
30.7877
30.7846
30.7825
30.781
30.78
30.7794
30.7789
30.7786
30.7784
30.7783
30.7782
30.7782
30.6607
30.6607
30.6607
30.6606
30.6606
30.6605
30.6605
30.6606
30.6607
30.661
30.6616
30.6627
30.6645
30.6675
30.6742
30.7283
30.7366
30.7498
30.7875
30.8217
30.8519
30.8864
30.9263
30.9637
30.9889
30.9922
30.9744
30.9448
30.9106
30.8684
30.8147
30.7859
30.7671
30.7011
30.6872
30.6789
30.6731
30.6691
30.6663
30.6645
30.6632
30.6623
30.6617
30.6613
30.661
30.6609
30.6608
30.6607
30.5442
30.5442
30.5442
30.5441
30.5441
30.544
30.544
30.5441
30.5442
30.5446
30.5454
30.5467
30.549
30.5529
30.5614
30.6138
30.6266
30.6445
30.6862
30.7296
30.7766
30.8372
30.9137
31.0007
31.0638
31.0653
31.0122
30.9401
30.8728
30.8072
30.7363
30.6943
30.6664
30.5963
30.5783
30.5674
30.5599
30.5548
30.5513
30.5489
30.5473
30.5462
30.5454
30.5449
30.5446
30.5444
30.5442
30.5442
30.4286
30.4286
30.4286
30.4285
30.4285
30.4284
30.4284
30.4285
30.4287
30.4292
30.4302
30.4319
30.4347
30.4396
30.4499
30.5016
30.5191
30.5429
30.5911
30.6477
30.7208
30.8246
30.9917
31.2294
31.4317
31.409
31.221
31.0273
30.8807
30.7705
30.672
30.6111
30.5709
30.4944
30.4717
30.4576
30.4482
30.4418
30.4374
30.4344
30.4324
30.431
30.4301
30.4294
30.429
30.4287
30.4286
30.4285
30.314
30.3139
30.3139
30.3138
30.3138
30.3137
30.3137
30.3139
30.3142
30.3148
30.316
30.318
30.3215
30.3276
30.3399
30.3915
30.4139
30.445
30.5022
30.5769
30.6842
30.8687
31.2456
32.0252
32.9822
32.6797
31.8502
31.2873
30.9628
30.7644
30.6238
30.5372
30.481
30.3956
30.3672
30.3496
30.3379
30.33
30.3246
30.321
30.3185
30.3168
30.3157
30.3149
30.3143
30.314
30.3138
30.3137
30.2002
30.2002
30.2001
30.2001
30.2
30.2
30.2
30.2002
30.2006
30.2013
30.2028
30.2052
30.2095
30.2168
30.2312
30.2834
30.311
30.3505
30.419
30.5164
30.6658
30.9769
31.785
34.8178
43.1664
38.2166
33.5091
31.8442
31.1483
30.798
30.5905
30.4726
30.3964
30.2997
30.2649
30.2432
30.2289
30.2194
30.2129
30.2085
30.2055
30.2035
30.2021
30.2011
30.2005
30.2001
30.1998
30.1997
30.0873
30.0873
30.0872
30.0872
30.0871
30.0871
30.0872
30.0874
30.0879
30.0888
30.0905
30.0927
30.098
30.1069
30.1238
30.177
30.2102
30.2588
30.3405
30.4628
30.6604
31.1235
32.5358
42.4943
61.0024
37.1463
32.8046
31.4528
30.8723
30.5703
30.4157
30.3167
30.2061
30.1641
30.1378
30.1205
30.1089
30.1011
30.0957
30.0921
30.0896
30.0878
30.0867
30.0859
30.0853
30.085
30.0849
29.9736
29.9736
29.9736
29.9736
29.9736
29.9736
29.9738
29.9741
29.9748
29.9761
29.9781
29.9762
29.9841
29.9964
30.0171
30.0722
30.111
30.1692
30.2649
30.4111
30.6566
31.2555
33.1063
48.3235
105.02
42.4886
34.0972
31.8531
30.9781
30.5596
30.3637
30.2405
30.1138
30.0631
30.0301
30.0081
29.993
29.9827
29.9755
29.9706
29.9672
29.9648
29.9631
29.962
29.9612
29.9607
29.9604
29.8504
29.8505
29.8506
29.8508
29.851
29.8514
29.852
29.8529
29.8545
29.8568
29.8603
29.8616
29.8718
29.8873
29.9116
29.9687
30.0133
30.081
30.1904
30.3578
30.6456
31.3483
33.4586
54.8271
127.669
47.2495
35.4269
32.2842
31.0962
30.5518
30.3136
30.1663
30.0227
29.9632
29.9239
29.8972
29.8789
29.8662
29.8574
29.8513
29.8471
29.8441
29.8419
29.8404
29.8394
29.8387
29.8382
29.7296
29.7298
29.7301
29.7304
29.7309
29.7315
29.7325
29.734
29.7363
29.7397
29.7445
29.748
29.7607
29.7793
29.8071
29.8664
29.9166
29.9935
30.1158
30.3016
30.6273
31.4139
33.8187
63.8897
129.211
50.1848
36.5151
32.6725
31.2041
30.5401
30.2621
30.0925
29.932
29.864
29.8185
29.7873
29.7657
29.7507
29.7403
29.7331
29.7279
29.7243
29.7217
29.7198
29.7185
29.7176
29.7171
29.6099
29.6102
29.6106
29.6111
29.6118
29.6128
29.6142
29.6162
29.6193
29.6237
29.6299
29.6358
29.6509
29.6725
29.7035
29.7651
29.8205
29.9061
30.0403
30.2424
30.6051
31.4705
34.334
75.8341
121.424
51.4189
37.2361
32.9651
31.283
30.5184
30.2064
30.0174
29.8408
29.765
29.7136
29.6781
29.6534
29.6362
29.6242
29.6157
29.6098
29.6055
29.6025
29.6003
29.5987
29.5976
29.597
29.4913
29.4917
29.4923
29.493
29.4939
29.4952
29.497
29.4996
29.5034
29.5089
29.5165
29.5247
29.5422
29.5667
29.6008
29.6645
29.7249
29.8184
29.9633
30.1805
30.5803
31.5305
35.0736
94.9135
3133.48
111.593
51.4794
37.5949
33.1412
31.3224
30.4832
30.1447
29.9395
29.7487
29.6657
29.609
29.5694
29.5417
29.5224
29.5089
29.4993
29.4925
29.4877
29.4842
29.4816
29.4798
29.4786
29.4778
29.3738
29.3743
29.3749
29.3758
29.377
29.3786
29.3808
29.384
29.3886
29.3952
29.4041
29.4146
29.4344
29.4618
29.4987
29.5645
29.6295
29.7301
29.8844
30.1162
30.5538
31.5987
36.1335
112.581
1041.76
102.741
50.8588
37.6663
33.2075
31.3206
30.4342
30.0758
29.8579
29.655
29.5658
29.5043
29.461
29.4307
29.4094
29.3944
29.3838
29.3762
29.3707
29.3668
29.364
29.3619
29.3605
29.3596
29.2573
29.2579
29.2587
29.2597
29.2611
29.263
29.2657
29.2695
29.2748
29.2825
29.2928
29.3053
29.3275
29.3575
29.3971
29.4649
29.5341
29.641
29.8035
30.0493
30.5251
31.6842
37.5432
219.245
591.213
95.7893
49.9498
37.55
33.1873
31.2812
30.3718
29.9997
29.7724
29.5598
29.4652
29.3994
29.3528
29.32
29.297
29.2806
29.269
29.2607
29.2547
29.2504
29.2472
29.2449
29.2433
29.2423
29.1418
29.1425
29.1434
29.1447
29.1463
29.1485
29.1516
29.1559
29.162
29.1707
29.1823
29.1969
29.2213
29.2538
29.296
29.3657
29.4385
29.5509
29.7204
29.9796
30.4927
31.7932
39.4138
395.673
457.139
90.3342
49.0479
37.3407
33.1093
31.2147
30.2974
29.9168
29.6827
29.4627
29.3637
29.2943
29.2448
29.2099
29.1851
29.1676
29.155
29.146
29.1395
29.1348
29.1313
29.1288
29.127
29.126
29.0273
29.0281
29.0292
29.0306
29.0325
29.035
29.0385
29.0433
29.0502
29.0597
29.0726
29.0891
29.1155
29.1504
29.195
29.2666
29.3428
29.4598
29.6351
29.9069
30.4557
31.9265
41.7041
523.518
376.411
86.0466
48.2207
37.1064
33.0004
31.1277
30.213
29.8278
29.5893
29.3638
29.2611
29.1888
29.1368
29.1
29.0738
29.0552
29.0418
29.0321
29.0251
29.02
29.0163
29.0136
29.0117
29.0105
28.9139
28.9148
28.916
28.9176
28.9197
28.9225
28.9263
28.9317
28.9392
28.9496
28.9637
28.9819
29.0102
29.0473
29.0942
29.1675
29.2467
29.3676
29.5479
29.831
30.4143
32.0889
44.5388
592.337
322.343
82.7632
47.4635
36.8582
32.8698
31.0265
30.1208
29.734
29.4926
29.2631
29.1578
29.0829
29.0289
28.9905
28.963
28.9434
28.9293
28.919
28.9116
28.9061
28.9021
28.8992
28.8972
28.8959
28.8014
28.8024
28.8037
28.8055
28.8078
28.8109
28.8151
28.8209
28.8291
28.8403
28.8554
28.8752
28.9051
28.9442
28.9933
29.0684
29.1503
29.2745
29.4588
29.7526
30.3701
32.2866
48.0618
617.756
283.607
80.4783
46.7933
36.61
32.7273
30.9163
30.0227
29.6362
29.393
29.161
29.0535
28.9766
28.921
28.8812
28.8527
28.8322
28.8174
28.8067
28.7988
28.793
28.7888
28.7857
28.7835
28.7822
28.69
28.691
28.6924
28.6943
28.6968
28.7002
28.7048
28.711
28.7197
28.7317
28.7478
28.7689
28.8003
28.8412
28.8922
28.9691
29.0535
29.1806
29.3684
29.672
30.325
32.5252
52.6291
615.426
254.476
78.8182
46.2024
36.3707
32.5803
30.8008
29.9204
29.5352
29.291
29.0574
28.9484
28.87
28.8131
28.7722
28.7428
28.7215
28.7062
28.695
28.6868
28.6807
28.6762
28.673
28.6706
28.6692
28.5794
28.5805
28.5821
28.5841
28.5868
28.5904
28.5953
28.602
28.6112
28.6238
28.6407
28.6631
28.6957
28.7381
28.7909
28.8694
28.9563
29.086
29.277
29.5899
30.281
32.81
58.2279
596.55
231.736
77.3485
45.6953
36.1433
32.4328
30.6826
29.8152
29.4318
29.1871
28.9527
28.8427
28.7631
28.7052
28.6634
28.6333
28.6114
28.5956
28.584
28.5754
28.5691
28.5644
28.561
28.5586
28.5572
28.4698
28.4709
28.4726
28.4748
28.4777
28.4815
28.4867
28.4937
28.5034
28.5166
28.5342
28.5576
28.5913
28.635
28.6893
28.7693
28.8586
28.9908
29.1848
29.5069
30.2402
33.1483
63.3542
568.769
213.457
75.9566
45.2962
35.9296
32.287
30.5631
29.7077
29.3264
29.0815
28.8469
28.7364
28.656
28.5974
28.5549
28.5242
28.5018
28.4856
28.4736
28.4648
28.4583
28.4534
28.4499
28.4474
28.4458
28.3611
28.3623
28.3641
28.3664
28.3694
28.3735
28.3789
28.3863
28.3963
28.41
28.4283
28.4526
28.487
28.5318
28.5873
28.6688
28.7602
28.8948
29.0918
29.4233
30.2042
33.5633
67.58
537.175
198.412
74.6384
45.0066
35.733
32.1443
30.4434
29.5988
29.2195
28.9747
28.7404
28.6297
28.5488
28.4897
28.4467
28.4155
28.3927
28.3761
28.3639
28.3549
28.3481
28.3431
28.3395
28.3369
28.3353
28.2533
28.2545
28.2564
28.2588
28.262
28.2663
28.2719
28.2796
28.29
28.3041
28.3229
28.3479
28.3831
28.4286
28.4852
28.5677
28.6611
28.7979
28.9982
29.3394
30.1749
34.1133
71.1366
504.979
185.786
73.3955
44.79
35.5583
32.0058
30.3243
29.4888
29.1114
28.8669
28.6334
28.5227
28.4416
28.3822
28.3388
28.3073
28.2842
28.2673
28.2548
28.2456
28.2387
28.2336
28.2298
28.2271
28.2255
28.1464
28.1477
28.1496
28.1521
28.1555
28.1599
28.1657
28.1736
28.1844
28.1988
28.2181
28.2437
28.2794
28.3256
28.3829
28.4663
28.5614
28.7003
28.9037
29.2556
30.1557
34.8388
74.16
474.027
175.016
72.2251
44.6083
35.4073
31.8735
30.2063
29.3783
29.0026
28.7586
28.526
28.4156
28.3344
28.2748
28.2313
28.1995
28.1762
28.159
28.1464
28.137
28.1299
28.1247
28.1208
28.1181
28.1165
28.0403
28.0416
28.0436
28.0463
28.0497
28.0543
28.0603
28.0685
28.0795
28.0942
28.1138
28.1399
28.1761
28.2227
28.2806
28.3646
28.4612
28.602
28.8087
29.1722
30.1527
35.678
76.7201
445.228
165.705
71.1212
44.4405
35.2776
31.748
30.09
29.2677
28.8933
28.6499
28.4184
28.3085
28.2274
28.1678
28.1241
28.0921
28.0687
28.0513
28.0385
28.029
28.0218
28.0165
28.0126
28.0098
28.0081
27.9351
27.9365
27.9385
27.9413
27.9448
27.9495
27.9557
27.964
27.9752
27.9903
28.0102
28.0367
28.0731
28.12
28.1784
28.2629
28.3606
28.5033
28.7134
29.0903
30.1741
36.5334
78.8647
418.891
157.559
70.0772
44.2779
35.1638
31.6292
29.9757
29.1573
28.7839
28.5412
28.3109
28.2015
28.1206
28.061
28.0173
27.9853
27.9617
27.9443
27.9313
27.9217
27.9144
27.909
27.905
27.9022
27.9005
27.8308
27.8321
27.8342
27.837
27.8407
27.8455
27.8518
27.8603
27.8717
27.887
27.9071
27.9339
27.9706
28.0177
28.0763
28.1612
28.26
28.4044
28.618
29.0106
30.226
37.3506
80.6338
394.987
150.363
69.0868
44.1169
35.0639
31.5166
29.8636
29.0474
28.6746
28.4325
28.2035
28.0946
28.0141
27.9547
27.911
27.8789
27.8552
27.8377
27.8247
27.815
27.8077
27.8022
27.7981
27.7952
27.7936
27.7272
27.7286
27.7307
27.7336
27.7374
27.7423
27.7487
27.7574
27.7689
27.7843
27.8047
27.8317
27.8685
27.9157
27.9746
28.0596
28.1593
28.3054
28.5229
28.9344
30.3094
38.1113
82.0646
373.318
143.95
68.1443
43.9568
34.9725
31.4095
29.7536
28.9381
28.5656
28.3241
28.0964
27.9881
27.9079
27.8487
27.8051
27.773
27.7493
27.7318
27.7187
27.7089
27.7015
27.696
27.6919
27.689
27.6873
27.6244
27.6258
27.628
27.631
27.6348
27.6398
27.6464
27.6551
27.6668
27.6823
27.7028
27.7301
27.7669
27.8142
27.8732
27.9583
28.0589
28.2066
28.4284
28.8629
30.4201
38.8117
83.1924
353.615
138.191
67.2446
43.7972
34.8873
31.3073
29.6456
28.8295
28.457
28.2161
27.9896
27.882
27.8022
27.7432
27.6997
27.6677
27.644
27.6264
27.6133
27.6035
27.5961
27.5905
27.5864
27.5835
27.5818
27.5225
27.5239
27.5261
27.5291
27.533
27.5381
27.5447
27.5536
27.5654
27.581
27.6016
27.629
27.6659
27.7132
27.7723
27.8574
27.9587
28.1081
28.3348
28.7973
30.5512
39.4528
84.05
335.61
132.986
66.3834
43.6375
34.8063
31.2094
29.5397
28.7217
28.3489
28.1085
27.8833
27.7763
27.6969
27.6382
27.5948
27.5629
27.5392
27.5217
27.5086
27.4987
27.4913
27.4857
27.4815
27.4786
27.4769
27.4213
27.4227
27.425
27.428
27.432
27.4371
27.4438
27.4528
27.4646
27.4803
27.5011
27.5286
27.5654
27.6127
27.6718
27.7569
27.8588
28.01
28.2424
28.7384
30.6957
40.0365
84.668
319.058
128.253
65.5569
43.4777
34.7283
31.1153
29.4356
28.6149
28.2415
28.0016
27.7775
27.6711
27.5921
27.5337
27.4905
27.4587
27.4351
27.4175
27.4044
27.3945
27.3871
27.3815
27.3773
27.3744
27.3726
27.3209
27.3223
27.3246
27.3277
27.3317
27.3369
27.3437
27.3526
27.3646
27.3804
27.4011
27.4287
27.4655
27.5127
27.5718
27.6569
27.7594
27.9126
28.1514
28.6868
30.8476
40.5657
85.0741
303.75
123.927
64.7619
43.3175
34.6523
31.0244
29.3335
28.509
28.1347
27.8952
27.6722
27.5665
27.4879
27.4297
27.3868
27.355
27.3315
27.314
27.3009
27.291
27.2836
27.278
27.2738
27.2708
27.2691
27.2212
27.2226
27.225
27.2281
27.2321
27.2373
27.2442
27.2532
27.2652
27.281
27.3019
27.3295
27.3662
27.4133
27.4724
27.5574
27.6606
27.8157
28.0623
28.6424
31.0022
41.0427
85.2935
289.518
119.953
63.9955
43.1567
34.5777
30.9364
29.2331
28.4042
28.0288
27.7895
27.5675
27.4624
27.3842
27.3263
27.2836
27.2519
27.2285
27.211
27.198
27.1881
27.1807
27.1751
27.1709
27.1679
27.1662
27.1223
27.1237
27.1261
27.1292
27.1333
27.1385
27.1454
27.1545
27.1666
27.1824
27.2033
27.2309
27.2675
27.3145
27.3736
27.4584
27.5622
27.7197
27.9752
28.6048
31.156
41.4703
85.3485
276.227
116.287
63.2553
42.9954
34.5038
30.8509
29.1344
28.3003
27.9236
27.6845
27.4634
27.3589
27.2811
27.2236
27.181
27.1495
27.1261
27.1087
27.0957
27.0859
27.0784
27.0728
27.0686
27.0657
27.064
27.0241
27.0256
27.0279
27.0311
27.0352
27.0405
27.0474
27.0565
27.0686
27.0844
27.1053
27.1329
27.1695
27.2163
27.2753
27.3601
27.4645
27.6245
27.8904
28.5736
31.3066
41.8512
85.2594
263.771
112.892
62.5392
42.8332
34.4304
30.7676
29.0375
28.1975
27.8192
27.5802
27.36
27.256
27.1787
27.1214
27.079
27.0476
27.0244
27.007
26.994
26.9842
26.9768
26.9712
26.967
26.9641
26.9624
26.9267
26.9281
26.9305
26.9336
26.9378
26.9431
26.9501
26.9592
26.9713
26.9872
27.008
27.0356
27.0721
27.1187
27.1777
27.2623
27.3674
27.5303
27.808
28.548
31.4519
42.1878
85.0437
252.071
109.737
61.8453
42.6702
34.3571
30.6862
28.9421
28.0958
27.7157
27.4767
27.2573
27.1538
27.0768
27.0198
26.9776
26.9464
26.9232
26.906
26.893
26.8833
26.8759
26.8703
26.8661
26.8631
26.8615
26.83
26.8314
26.8337
26.8369
26.8411
26.8465
26.8534
26.8626
26.8747
26.8905
26.9114
26.9389
26.9753
27.0218
27.0806
27.1651
27.271
27.437
27.7281
28.6253
31.9818
43.8171
90.6283
234.483
102.234
59.4609
41.7757
33.9576
30.4535
28.8483
27.9951
27.613
27.3738
27.1551
27.0522
26.9756
26.9189
26.8769
26.8458
26.8227
26.8055
26.7926
26.7829
26.7755
26.77
26.7658
26.7629
26.7612
26.734
26.7354
26.7377
26.7409
26.7451
26.7505
26.7575
26.7667
26.7787
26.7946
26.8154
26.8429
26.8791
26.9255
26.9836
27.0467
27.1744
27.345
27.7019
28.617
32.1299
44.0884
90.111
223.648
99.7773
58.875
41.6283
33.8879
30.376
28.7574
27.8954
27.5111
27.1794
27.0533
26.9512
26.875
26.8186
26.7768
26.7458
26.7229
26.7057
26.6929
26.6832
26.6758
26.6703
26.6661
26.6632
26.6616
26.6387
26.6401
26.6424
26.6456
26.6498
26.6552
26.6622
26.6714
26.6835
26.6993
26.7201
26.7475
26.7836
26.8297
26.8874
26.9525
27.0781
27.2543
27.6369
28.8914
33.2328
47.4698
103.185
193.047
90.3373
55.4244
40.1984
33.2277
30.0172
28.5212
27.7975
27.4097
27.08
26.9522
26.8509
26.7751
26.7189
26.6773
26.6465
26.6236
26.6066
26.5938
26.5841
26.5768
26.5713
26.5671
26.5642
26.5626
26.5441
26.5454
26.5478
26.551
26.5552
26.5606
26.5676
26.5768
26.5889
26.6047
26.6254
26.6528
26.6887
26.7347
26.7919
26.8585
26.9768
27.1645
27.5747
28.9098
33.3874
47.6826
101.894
185.537
88.5389
54.9611
40.0721
33.1615
29.9427
28.4328
27.7005
27.1929
26.9809
26.8519
26.7513
26.6759
26.6199
26.5785
26.5478
26.525
26.508
26.4953
26.4857
26.4784
26.4729
26.4688
26.4659
26.4643
26.4501
26.4515
26.4539
26.4571
26.4613
26.4667
26.4737
26.4829
26.4949
26.5107
26.5314
26.5587
26.5945
26.6402
26.6971
26.7652
26.886
27.1213
27.7512
29.7979
36.2286
56.5848
132.404
146.916
76.4716
50.0187
37.8657
32.1078
29.383
28.0862
27.4455
27.0948
26.8825
26.7524
26.6524
26.5773
26.5216
26.4803
26.4498
26.4271
26.4102
26.3975
26.3879
26.3806
26.3752
26.3711
26.3682
26.3666
26.3569
26.3583
26.3606
26.3639
26.368
26.3735
26.3805
26.3896
26.4016
26.4174
26.4381
26.4653
26.5009
26.5464
26.603
26.6726
26.7961
27.0444
27.7181
29.8588
36.4104
56.6478
129.33
142.789
75.2805
49.6864
37.7629
32.0439
29.3099
28
27.3514
26.9977
26.7848
26.6536
26.5541
26.4793
26.4239
26.3828
26.3523
26.3298
26.3129
26.3003
26.2907
26.2835
26.278
26.274
26.2711
26.2696
26.2643
26.2657
26.268
26.2713
26.2755
26.2809
26.2879
26.297
26.309
26.3247
26.3454
26.3725
26.4079
26.4532
26.5097
26.5807
26.7073
26.9694
27.6863
29.9156
36.5702
56.6491
126.387
138.886
74.1351
49.356
37.6573
31.979
29.2373
27.9149
27.2582
26.9013
26.6878
26.5556
26.4565
26.3821
26.3268
26.2859
26.2556
26.2331
26.2163
26.2037
26.1942
26.187
26.1816
26.1775
26.1747
26.1731
26.1724
26.1738
26.1761
26.1794
26.1835
26.1889
26.196
26.2051
26.2171
26.2327
26.2533
26.2803
26.3156
26.3607
26.417
26.4894
26.6196
26.896
27.6557
29.968
36.7089
56.5972
123.568
135.19
73.0321
49.0275
37.549
31.9132
29.1652
27.8306
27.1659
26.8058
26.5915
26.4584
26.3596
26.2855
26.2304
26.1896
26.1595
26.137
26.1203
26.1078
26.0983
26.0912
26.0858
26.0817
26.0789
26.0774
26.0812
26.0825
26.0849
26.0881
26.0923
26.0977
26.1047
26.1138
26.1257
26.1414
26.1619
26.1888
26.2239
26.2688
26.325
26.399
26.533
26.8241
27.626
30.0158
36.8275
56.4999
120.865
131.684
71.9687
48.7011
37.4382
31.8464
29.0935
27.7472
27.0746
26.7112
26.4959
26.3619
26.2633
26.1895
26.1347
26.094
26.064
26.0416
26.025
26.0125
26.0031
25.996
25.9906
25.9866
25.9838
25.9822
25.9906
25.9919
25.9942
25.9975
26.0016
26.007
26.014
26.0231
26.035
26.0506
26.0711
26.0979
26.1329
26.1775
26.2338
26.3092
26.4474
26.7538
27.5969
30.0588
36.9272
56.3634
118.271
128.355
70.9425
48.3769
37.3251
31.7786
29.0221
27.6647
26.9842
26.6173
26.401
26.2661
26.1678
26.0942
26.0396
25.9991
25.9691
25.9469
25.9303
25.9178
25.9085
25.9014
25.896
25.892
25.8892
25.8877
25.9007
25.902
25.9043
25.9075
25.9117
25.9171
25.924
25.9331
25.945
25.9605
25.9809
26.0076
26.0425
26.0869
26.1432
26.2202
26.3628
26.6849
27.5682
30.097
37.0093
56.1929
115.781
125.19
69.9513
48.0551
37.2098
31.7098
28.9511
27.583
26.8948
26.5243
26.3068
26.1711
26.0729
25.9996
25.9451
25.9048
25.8749
25.8527
25.8362
25.8238
25.8145
25.8074
25.8021
25.7981
25.7953
25.7939
25.8114
25.8126
25.815
25.8182
25.8223
25.8277
25.8347
25.8437
25.8555
25.871
25.8913
25.918
25.9527
25.9969
26.0533
26.1319
26.2794
26.6173
27.5397
30.1303
37.0749
55.9929
113.388
122.174
68.993
47.7357
37.0924
31.64
28.8803
27.5021
26.8062
26.4321
26.2133
26.0768
25.9787
25.9056
25.8513
25.8111
25.7813
25.7592
25.7427
25.7304
25.7211
25.7141
25.7087
25.7048
25.7021
25.7006
25.7227
25.724
25.7262
25.7294
25.7336
25.739
25.7459
25.7549
25.7667
25.7822
25.8024
25.829
25.8635
25.9076
25.9641
26.0444
26.1969
26.551
27.5114
30.1588
37.1251
55.7677
111.086
119.299
68.0658
47.4187
36.973
31.5692
28.8097
27.422
26.7184
26.3407
26.1205
25.9832
25.8852
25.8123
25.7582
25.7181
25.6884
25.6663
25.6499
25.6376
25.6284
25.6213
25.6161
25.6121
25.6094
25.608
25.6346
25.6359
25.6382
25.6414
25.6455
25.6509
25.6578
25.6668
25.6785
25.6939
25.7141
25.7405
25.7749
25.8189
25.8756
25.9577
26.1155
26.4859
27.4829
30.1826
37.1611
55.5209
108.871
116.554
67.168
47.1042
36.8518
31.4974
28.7393
27.3425
26.6315
26.25
26.0284
25.8903
25.7923
25.7196
25.6657
25.6257
25.5961
25.5741
25.5577
25.5455
25.5362
25.5293
25.524
25.5201
25.5174
25.5159
25.5472
25.5484
25.5507
25.5539
25.558
25.5634
25.5703
25.5792
25.591
25.6063
25.6264
25.6527
25.6869
25.7308
25.7878
25.8717
26.0351
26.4218
27.4543
30.2017
37.1837
55.2556
106.737
113.931
66.2979
46.7923
36.7289
31.4246
28.669
27.2637
26.5455
26.1602
25.9371
25.7981
25.7001
25.6276
25.5738
25.5339
25.5044
25.4825
25.4661
25.4539
25.4447
25.4378
25.4325
25.4286
25.426
25.4245
25.4604
25.4616
25.4639
25.467
25.4711
25.4765
25.4834
25.4923
25.504
25.5193
25.5393
25.5655
25.5996
25.6433
25.7006
25.7864
25.9556
26.3588
27.4254
30.2163
37.1941
54.9747
104.682
111.42
65.454
46.4829
36.6044
31.3508
28.5988
27.1856
26.4602
26.0711
25.8464
25.7066
25.6085
25.5362
25.4825
25.4427
25.4133
25.3914
25.3752
25.363
25.3538
25.3469
25.3417
25.3378
25.3351
25.3337
25.3741
25.3754
25.3776
25.3808
25.3849
25.3902
25.397
25.406
25.4176
25.4328
25.4528
25.4789
25.5128
25.5565
25.6141
25.702
25.8771
26.2967
27.3962
30.2264
37.1931
54.6808
102.699
109.016
64.6351
46.1762
36.4785
31.2761
28.5287
27.1081
26.3757
25.9828
25.7564
25.6158
25.5177
25.4455
25.3919
25.3522
25.3228
25.301
25.2848
25.2727
25.2635
25.2566
25.2514
25.2476
25.2449
25.2435
25.2885
25.2897
25.292
25.2951
25.2992
25.3045
25.3113
25.3202
25.3318
25.347
25.3669
25.3929
25.4267
25.4703
25.5283
25.6182
25.7996
26.2355
27.3664
30.2323
37.1816
54.3758
100.787
106.71
63.8397
45.872
36.3511
31.2004
28.4586
27.0312
26.292
25.8952
25.6671
25.5256
25.4274
25.3554
25.3019
25.2623
25.233
25.2113
25.1951
25.183
25.1738
25.167
25.1618
25.158
25.1553
25.154
25.2035
25.2047
25.2069
25.21
25.2141
25.2194
25.2262
25.2351
25.2466
25.2617
25.2815
25.3075
25.3411
25.3847
25.4431
25.5353
25.723
26.1751
27.3362
30.234
37.1604
54.062
98.9407
104.498
63.0667
45.5704
36.2224
31.1237
28.3885
26.9549
26.209
25.8083
25.5785
25.4361
25.3378
25.2659
25.2125
25.173
25.1438
25.1221
25.1059
25.0938
25.0848
25.0779
25.0727
25.0689
25.0663
25.065
25.119
25.1202
25.1224
25.1255
25.1296
25.1349
25.1417
25.1505
25.162
25.1771
25.1968
25.2226
25.2562
25.2997
25.3587
25.453
25.6473
26.1156
27.3054
30.2317
37.1304
53.7409
97.1576
102.372
62.315
45.2715
36.0926
31.0462
28.3184
26.8791
26.1267
25.7222
25.4906
25.3473
25.2489
25.177
25.1238
25.0843
25.0551
25.0335
25.0174
25.0053
24.9963
24.9894
24.9843
24.9805
24.9779
24.9766
25.0352
25.0364
25.0385
25.0416
25.0457
25.0509
25.0577
25.0665
25.078
25.093
25.1126
25.1383
25.1718
25.2153
25.2748
25.3716
25.5725
26.0567
27.274
30.2257
37.0922
53.414
95.4343
100.329
61.5835
44.9751
35.9616
30.9678
28.2482
26.8038
26.0452
25.6367
25.4033
25.2592
25.1605
25.0887
25.0356
24.9962
24.9671
24.9455
24.9294
24.9174
24.9084
24.9016
24.8964
24.8927
24.8901
24.8888
24.9519
24.9531
24.9552
24.9583
24.9623
24.9676
24.9743
24.9831
24.9945
25.0094
25.029
25.0546
25.088
25.1315
25.1916
25.2908
25.4986
25.9985
27.242
30.216
37.0466
53.0829
93.768
98.3619
60.8713
44.6813
35.8296
30.8885
28.178
26.7289
25.9643
25.552
25.3167
25.1717
25.0728
25.0011
24.9481
24.9088
24.8797
24.8581
24.8421
24.8301
24.8211
24.8143
24.8092
24.8054
24.8029
24.8015
24.8692
24.8703
24.8725
24.8755
24.8796
24.8848
24.8915
24.9002
24.9116
24.9265
24.946
24.9715
25.0047
25.0483
25.1091
25.2108
25.4255
25.9409
27.2094
30.2029
36.9941
52.7485
92.1562
96.4679
60.1775
44.3902
35.6966
30.8083
28.1077
26.6546
25.8841
25.468
25.2307
25.0849
24.9858
24.9141
24.8611
24.8219
24.7928
24.7713
24.7553
24.7433
24.7343
24.7276
24.7225
24.7187
24.7162
24.7149
24.787
24.7882
24.7903
24.7933
24.7973
24.8025
24.8092
24.8179
24.8293
24.8441
24.8635
24.889
24.9221
24.9656
25.0272
25.1316
25.3532
25.884
27.176
30.1865
36.9354
52.4121
90.5963
94.6422
59.5011
44.1016
35.5627
30.7273
28.0373
26.5806
25.8046
25.3846
25.1454
24.9986
24.8993
24.8276
24.7747
24.7356
24.7066
24.6851
24.6691
24.6571
24.6482
24.6414
24.6363
24.6326
24.6301
24.6288
24.7054
24.7065
24.7087
24.7117
24.7157
24.7208
24.7275
24.7362
24.7475
24.7623
24.7816
24.8069
24.84
24.8836
24.9459
25.053
25.2818
25.8275
27.1421
30.167
36.8711
52.0745
89.0858
92.8812
58.8414
43.8155
35.4281
30.6455
27.9668
26.5071
25.7257
25.302
25.0608
24.9131
24.8135
24.7418
24.689
24.6498
24.6209
24.5994
24.5835
24.5715
24.5626
24.5559
24.5508
24.5471
24.5446
24.5433
24.6244
24.6255
24.6276
24.6306
24.6346
24.6397
24.6464
24.655
24.6662
24.681
24.7003
24.7255
24.7585
24.8022
24.8653
24.9752
25.2111
25.7716
27.1074
30.1446
36.8016
51.7365
87.6227
91.1813
58.1977
43.5319
35.2926
30.5629
27.8961
26.4339
25.6474
25.2199
24.9768
24.8281
24.7282
24.6565
24.6038
24.5647
24.5358
24.5144
24.4984
24.4865
24.4776
24.4709
24.4658
24.4621
24.4596
24.4584
24.5438
24.545
24.547
24.55
24.554
24.5591
24.5657
24.5743
24.5856
24.6002
24.6194
24.6446
24.6775
24.7213
24.7853
24.8981
25.1412
25.7162
27.0722
30.1194
36.7276
51.399
86.2047
89.539
57.5692
43.2509
35.1565
30.4795
27.8253
26.3611
25.5697
25.1386
24.8934
24.7438
24.6436
24.5719
24.5192
24.4801
24.4513
24.4298
24.4139
24.402
24.3931
24.3864
24.3814
24.3777
24.3753
24.374
24.4639
24.465
24.4671
24.47
24.474
24.4791
24.4857
24.4942
24.5054
24.52
24.5392
24.5642
24.5971
24.6411
24.706
24.8217
25.0721
25.6612
27.0363
30.0916
36.6493
51.0625
84.8299
87.9515
56.9552
42.9723
35.0197
30.3954
27.7544
26.2887
25.4926
25.0578
24.8107
24.66
24.5595
24.4878
24.4351
24.3962
24.3673
24.3459
24.33
24.3182
24.3093
24.3026
24.2976
24.2939
24.2914
24.2902
24.3847
24.3858
24.3878
24.3908
24.3947
24.3998
24.4064
24.4149
24.426
24.4406
24.4597
24.4846
24.5174
24.5616
24.6274
24.7462
25.0039
25.6068
26.9998
30.0614
36.5674
50.7276
83.4967
86.4159
56.3555
42.6965
34.8825
30.3108
27.6835
26.2168
25.4162
24.978
24.7288
24.5772
24.4763
24.4046
24.3519
24.313
24.2842
24.2628
24.2469
24.2351
24.2262
24.2195
24.2145
24.2109
24.2084
24.2072
24.3099
24.3109
24.313
24.3159
24.3198
24.3249
24.3314
24.3399
24.351
24.3655
24.3845
24.4095
24.4422
24.4866
24.5534
24.6751
24.9396
25.5554
26.9645
30.0304
36.485
50.4016
82.2139
84.9424
55.7805
42.4312
34.7503
30.2294
27.6159
26.1488
25.3444
24.9028
24.6517
24.4991
24.398
24.3262
24.2735
24.2346
24.2058
24.1845
24.1686
24.1568
24.1479
24.1413
24.1363
24.1326
24.1302
24.129
47.774
122.602
68.5893
53.9277
157.909
129.49
62.5761
159.579
159.476
74.014
147.273
158.537
92.0194
4090.94
3302.44
132.118
145.37
110.736
1384.4
3875.63
1089.77
119.222
130.34
41.4086
24527.2
42.5571
27375.1
62.3943
39.212
770.897
147.608
100.108
44.0643
38.2867
4470.72
3418.33
126.283
50.017
44.9083
33.7671
51.8918
47.2111
57.8301
264.915
214.538
2409.57
3619.23
129.731
53.5876
50.5984
34.2586
59.0891
52.6866
67.8056
500.231
350.457
1026.45
1294.14
34.9661
69.6805
60.1802
81.9792
957.587
706.583
11776.7
474.439
658.392
35.981
84.2442
71.3486
104.398
2246.97
1473.34
1617.22
342.07
393.482
199.786
902.811
1322.58
120.853
181.465
76.394
116.072
3265
884.541
100.098
508.261
2027.13
277.428
320.083
192.039
266.177
3694.76
4462.05
150.176
2949.01
2501.06
2131.44
2948.15
146.219