/*--------------------------------*- C++ -*----------------------------------*\
| =========                 |                                                 |
| \\      /  F ield         | foam-extend: Open Source CFD                    |
|  \\    /   O peration     | Version:     4.1                                |
|   \\  /    A nd           | Web:         http://www.foam-extend.org         |
|    \\/     M anipulation  |                                                 |
\*---------------------------------------------------------------------------*/
FoamFile
{
    version     2.0;
    format      ascii;
    class       volScalarField;
    location    "0";
    object      p;
}
// * * * * * * * * * * * * * * * * * * * * * * * * * * * * * * * * * * * * * //

dimensions      [0 2 -2 0 0 0 0];

internalField   nonuniform List<scalar> 
35801
(
315.131
315.163
315.212
315.252
315.238
315.111
314.79
314.174
313.134
311.51
309.11
305.701
301.006
294.702
286.422
275.759
262.288
245.588
225.285
201.105
172.935
140.889
105.37
67.0877
27.0303
-13.6265
-53.6531
-91.9097
-127.465
-159.664
-188.141
-212.786
-233.702
-251.143
-265.455
-277.031
-286.266
-293.537
-299.188
-303.52
-306.795
-309.232
-311.016
-312.294
-313.184
-313.776
-314.135
-314.304
315.114
315.153
315.216
315.278
315.295
315.208
314.939
314.387
313.426
311.901
309.619
306.349
301.817
295.699
287.625
277.18
263.924
247.415
227.254
203.137
174.912
142.664
106.783
67.9951
27.3348
-13.9528
-54.5628
-93.294
-129.181
-161.563
-190.092
-214.682
-235.466
-252.727
-266.839
-278.213
-287.257
-294.355
-299.852
-304.053
-307.216
-309.561
-311.27
-312.488
-313.333
-313.892
-314.23
-314.389
315.072
315.128
315.227
315.342
315.435
315.448
315.308
314.918
314.157
312.874
310.886
307.965
303.84
298.187
290.626
280.724
268.005
251.973
232.166
208.204
179.843
147.092
110.309
70.2591
28.0923
-14.7716
-56.8389
-96.7548
-133.467
-166.303
-194.962
-219.415
-239.868
-256.681
-270.294
-281.164
-289.73
-296.395
-301.51
-305.381
-308.267
-310.382
-311.904
-312.974
-313.705
-314.182
-314.467
-314.6
314.994
315.077
315.232
315.434
315.648
315.822
315.887
315.756
315.315
314.424
312.907
310.549
307.084
302.189
295.474
286.472
274.65
259.433
240.243
216.587
188.048
154.497
116.228
74.0621
29.3502
-16.1795
-60.6992
-102.586
-140.645
-174.19
-203.024
-227.203
-247.078
-263.127
-275.9
-285.934
-293.716
-299.672
-304.166
-307.505
-309.942
-311.687
-312.908
-313.74
-314.29
-314.635
-314.835
-314.926
314.863
314.981
315.209
315.525
315.897
316.281
316.616
316.824
316.805
316.431
315.542
313.937
311.36
307.497
301.948
294.211
283.687
269.623
251.353
228.25
199.581
165.001
124.679
79.5005
31.1136
-18.273
-66.3085
-110.964
-150.845
-185.258
-214.253
-238.009
-256.969
-271.888
-283.454
-292.315
-299.014
-304.005
-307.661
-310.285
-312.124
-313.377
-314.2
-314.719
-315.028
-315.201
-315.289
-315.325
314.653
314.814
315.129
315.58
316.141
316.776
317.435
318.051
318.54
318.793
318.668
317.987
316.515
313.952
309.905
303.857
294.992
283.226
267.14
246.262
219.377
185.766
145.209
98.348
46.8831
-6.57678
-59.044
-107.843
-151.126
-187.997
-218.46
-251.9
-269.637
-282.928
-292.858
-300.176
-305.483
-309.253
-311.862
-313.604
-314.71
-315.363
-315.703
-315.842
-315.863
-315.827
-315.78
-315.75
314.334
314.543
314.956
315.561
316.337
317.258
318.285
319.368
320.442
321.418
322.184
322.588
322.43
321.442
319.253
315.368
307.59
297.718
284.371
265.259
239.115
204.691
161.266
109.326
51.0309
-9.93484
-69.271
-123.28
-169.674
-207.669
-237.426
-260.189
-285.294
-296.323
-304.096
-309.448
-313.03
-315.318
-316.673
-317.37
-317.615
-317.569
-317.35
-317.05
-316.738
-316.464
-316.263
-316.157
313.871
314.133
314.654
315.425
316.437
317.67
319.102
320.7
322.42
324.202
325.966
327.599
328.946
329.794
329.848
328.516
322.162
315.749
305.008
288.388
263.908
229.299
182.908
124.734
57.4501
-13.6118
-82.0612
-142.662
-192.643
-231.687
-260.814
-281.804
-303.918
-312.124
-317.081
-320.012
-321.523
-322.066
-321.968
-321.469
-320.739
-319.906
-319.062
-318.275
-317.594
-317.056
-316.684
-316.495
313.228
313.545
314.179
315.127
316.385
317.949
319.809
321.953
324.363
327.011
329.853
332.828
335.837
338.728
341.261
339.13
338.746
336.18
327.732
315.643
295.338
263.308
216.335
152.924
75.5837
-8.35831
-89.2028
-159.061
-214.261
-254.753
-289.906
-307.118
-318.602
-329.969
-331.584
-331.646
-330.746
-329.3
-327.574
-325.75
-323.952
-322.264
-320.744
-319.432
-318.357
-317.536
-316.983
-316.705
312.365
312.738
313.487
314.613
316.123
318.023
320.322
323.026
326.147
329.69
333.657
338.043
342.821
347.945
353.31
353.393
357.13
359.286
355.078
347.223
332.604
304.994
258.423
188.384
96.3386
-7.07847
-105.967
-187.914
-248.473
-294.147
-325.774
-337.755
-343.387
-349.786
-347.34
-344.027
-340.411
-336.771
-333.278
-330.035
-327.103
-324.515
-322.288
-320.431
-318.947
-317.834
-317.093
-316.724
311.243
311.671
312.532
313.834
315.591
317.822
320.552
323.811
327.637
332.075
337.174
342.99
349.575
356.985
365.282
368.068
376.321
384.124
385.652
385.137
379.291
359.227
314.863
235.436
118.708
-17.7213
-143.999
-240.007
-302.898
-344.517
-368.654
-372.663
-371.114
-370.859
-363.737
-356.715
-350.161
-344.184
-338.835
-334.121
-330.026
-326.522
-323.581
-321.175
-319.28
-317.875
-316.947
-316.486
309.823
310.302
311.269
312.737
314.728
317.273
320.413
324.2
328.701
333.997
340.188
347.395
355.755
365.427
376.683
382.492
395.628
409.799
418.411
427.551
434.808
429.317
395.945
309.947
155.366
-37.2946
-205.356
-316.503
-376.307
-407.454
-418.706
-411.649
-401.17
-392.466
-380.167
-369.199
-359.577
-351.202
-343.978
-337.795
-332.548
-328.144
-324.505
-321.565
-319.272
-317.586
-316.477
-315.928
308.067
308.594
309.657
311.274
313.477
316.307
319.82
324.089
329.206
335.29
342.486
350.981
361.002
372.817
386.919
395.874
413.935
434.778
451.516
472.476
497.621
516.873
511.756
433.873
218.424
-82.2025
-312.976
-431.327
-474.325
-483.71
-474.74
-453.267
-432.127
-413.634
-395.882
-380.881
-368.189
-357.46
-348.421
-340.831
-334.491
-329.239
-324.945
-321.506
-318.842
-316.894
-315.617
-314.987
305.943
306.51
307.655
309.402
311.787
314.861
318.695
323.379
329.029
335.794
343.863
353.481
364.958
378.661
395.298
407.33
429.962
457.159
482.301
516.071
562.341
616.67
670.137
657.004
344.941
-204.588
-511.588
-601.004
-599.387
-571.151
-533.712
-495.067
-462.138
-433.062
-409.944
-391.077
-375.49
-362.577
-351.876
-343.009
-335.683
-329.67
-324.791
-320.907
-317.914
-315.732
-314.307
-313.604
303.421
304.02
305.231
307.08
309.611
312.881
316.971
321.986
328.06
335.369
344.136
354.651
367.29
382.497
401.161
415.981
442.401
474.902
507.61
553.055
619.123
710.705
849.597
1062.44
685.812
-616.315
-873.641
-833.418
-745.315
-662.377
-590.267
-533.492
-488.816
-449.255
-421.328
-399.07
-380.97
-366.184
-354.067
-344.118
-335.962
-329.31
-323.941
-319.686
-316.417
-314.042
-312.492
-311.729
300.479
301.1
302.357
304.279
306.913
310.321
314.592
319.84
326.214
333.904
343.156
354.291
367.731
383.955
403.987
421.091
450.139
486.246
524.557
578.181
656.851
770.186
957.437
1394.23
-1931.93
-1414.2
-1097.79
-890.097
-744.479
-637.32
-564.314
-509.54
-460.743
-429.062
-404.197
-384.165
-367.948
-354.751
-343.98
-335.192
-328.054
-322.312
-317.774
-314.296
-311.772
-310.128
-309.319
297.098
297.732
299.015
300.977
303.667
307.151
311.521
316.895
323.427
331.318
340.822
352.269
366.103
382.799
403.445
422.163
452.447
490.1
531.355
588.333
669.609
780.531
934.699
1098.18
-3275.23
-1884.23
-1307.05
-997.81
-801.448
-667.358
-583.404
-521.909
-466.305
-432.358
-405.925
-384.708
-367.609
-353.742
-342.454
-333.268
-325.821
-319.84
-315.12
-311.506
-308.886
-307.181
-306.341
293.271
293.906
295.193
297.161
299.858
303.353
307.735
313.123
319.67
327.573
337.084
348.524
362.33
378.937
399.424
418.995
449.086
486.222
527.711
583.518
659.598
755.305
866.815
957.752
-3240.49
-1991.42
-1375.08
-1036.47
-820.535
-675.118
-587.846
-524.28
-465.194
-430.737
-403.931
-382.376
-365.012
-350.925
-339.458
-330.125
-322.56
-316.484
-311.69
-308.02
-305.36
-303.628
-302.775
288.994
289.62
290.889
292.828
295.485
298.924
303.232
308.522
314.941
322.671
331.95
343.071
356.442
372.427
392.028
411.688
440.278
475.113
514.549
565.923
632.719
712.402
800.202
883.986
-2552.71
-1765.96
-1289.03
-997.35
-797.996
-659.214
-576.901
-516.176
-457.298
-424.116
-398.15
-377.121
-360.117
-346.27
-334.965
-325.744
-318.255
-312.232
-307.473
-303.827
-301.183
-299.46
-298.612
284.273
284.88
286.109
287.986
290.555
293.876
298.028
303.115
309.269
316.654
325.479
335.996
348.565
363.459
381.547
400.589
426.607
457.757
493.434
538.343
594.211
659.694
733.872
825.421
-1742.94
-1377.43
-1098.41
-896.616
-740.121
-622.619
-552.097
-498.387
-443.15
-412.821
-388.781
-369.072
-353.01
-339.833
-329.016
-320.151
-312.924
-307.094
-302.478
-298.934
-296.361
-294.683
-293.856
279.121
279.699
280.868
282.652
285.09
288.234
292.156
296.944
302.711
309.597
317.775
327.447
338.907
352.33
368.412
386.236
408.882
435.387
466.128
503.337
547.55
598.882
659.022
738.706
-897.382
-990.822
-965.519
-868.392
-762.853
-659.583
-571.413
-516.644
-472.722
-423.811
-397.522
-376.259
-358.518
-343.886
-331.751
-321.705
-313.414
-306.618
-301.111
-296.734
-293.366
-290.914
-289.313
-288.524
273.557
274.097
275.189
276.852
279.12
282.038
285.663
290.069
295.347
301.607
308.982
317.616
327.732
339.404
353.139
369.278
388.043
409.339
434.414
463.195
495.073
530.586
573.293
636.633
152.854
-445.14
-623.268
-651.641
-623.826
-570.271
-512.456
-474.536
-441.566
-400.652
-379.109
-361.178
-345.866
-333.028
-322.223
-313.176
-305.641
-299.416
-294.343
-290.29
-287.16
-284.875
-283.38
-282.642
267.608
268.103
269.102
270.621
272.686
275.334
278.609
282.566
287.274
292.81
299.266
306.726
315.34
325.09
336.285
350.418
365.068
380.966
400.064
420.176
439.414
457.36
474.642
503.633
245.977
-176.923
-390.511
-477.196
-498.655
-483.335
-452.094
-429.62
-407.389
-375.117
-358.559
-344.215
-331.59
-320.772
-311.492
-303.609
-296.964
-291.421
-286.868
-283.209
-280.369
-278.289
-276.924
-276.25
261.305
261.748
262.642
263.998
265.835
268.179
271.063
274.523
278.602
283.347
288.808
295.015
302.045
309.799
318.406
330.357
340.913
351.564
364.787
376.594
383.897
384.952
374.108
333.12
167.916
-75.7944
-252.468
-350.562
-395.938
-405.403
-394.707
-385.035
-372.359
-348.537
-336.811
-326.047
-316.181
-307.477
-299.825
-293.203
-287.535
-282.75
-278.78
-275.566
-273.056
-271.209
-269.994
-269.392
254.683
255.07
255.849
257.028
258.618
260.636
263.1
266.029
269.445
273.362
277.794
282.72
288.151
293.93
300.02
309.748
316.443
322.282
330.111
334.585
331.898
319.776
291.334
232.992
117.191
-38.1486
-171.476
-262.32
-315.333
-339.054
-342.848
-342.947
-338.148
-322
-314.68
-307.29
-300.101
-293.494
-287.487
-282.162
-277.512
-273.527
-270.18
-267.443
-265.29
-263.697
-262.645
-262.123
247.781
248.109
248.768
249.76
251.091
252.769
254.798
257.182
259.92
263
266.403
270.067
273.946
277.841
281.581
289.155
292.378
294.037
297.229
295.752
285.733
265.529
230.25
172.718
86.1807
-22.8068
-123.336
-201.004
-253.846
-284.519
-297.574
-304.583
-305.88
-296.32
-292.82
-288.466
-283.761
-279.142
-274.732
-270.685
-267.056
-263.881
-261.171
-258.928
-257.146
-255.819
-254.938
-254.499
240.641
240.908
241.443
242.244
243.312
244.645
246.235
248.073
250.139
252.398
254.804
257.261
259.68
261.836
263.46
269.034
269.27
267.477
266.911
260.978
246.206
222.028
185.717
133.707
65.9889
-15.6948
-93.6623
-158.715
-207.599
-240.494
-258.895
-270.442
-276.197
-272.031
-271.709
-269.984
-267.497
-264.699
-261.784
-258.956
-256.316
-253.935
-251.857
-250.108
-248.7
-247.642
-246.935
-246.582
233.304
233.51
233.921
234.532
235.337
236.328
237.487
238.792
240.207
241.681
243.144
244.478
245.562
246.161
245.94
249.724
247.486
242.974
239.524
230.496
213.024
187.525
152.783
106.949
52.0931
-12.0054
-74.2653
-128.798
-172.641
-205.174
-226.243
-240.523
-249.36
-249.443
-251.665
-252.141
-251.574
-250.393
-248.836
-247.138
-245.427
-243.805
-242.337
-241.068
-240.028
-239.234
-238.7
-238.431
225.814
225.96
226.248
226.673
227.223
227.882
228.626
229.421
230.221
230.96
231.554
231.868
231.762
231.004
229.219
231.447
227.238
220.681
215.128
204.11
185.39
160.095
127.887
87.7315
42.1071
-9.90419
-60.899
-107.013
-145.883
-176.796
-198.819
-214.538
-225.374
-228.686
-232.876
-235.14
-236.187
-236.402
-236.049
-235.37
-234.513
-233.596
-232.702
-231.89
-231.201
-230.663
-230.295
-230.108
218.212
218.3
218.471
218.716
219.022
219.365
219.716
220.034
220.264
220.33
220.138
219.548
218.404
216.493
213.422
214.334
208.612
200.589
193.581
181.412
162.396
138.101
108.64
73.4062
34.6785
-8.6065
-51.2675
-90.6949
-125.078
-153.851
-175.79
-192.068
-204.088
-209.77
-215.426
-219.1
-221.466
-222.858
-223.545
-223.766
-223.674
-223.4
-223.035
-222.648
-222.288
-221.99
-221.78
-221.671
210.538
210.571
210.631
210.707
210.783
210.831
210.818
210.698
210.408
209.869
208.982
207.605
205.579
202.71
198.612
198.437
191.601
182.588
174.633
161.916
143.194
120.271
93.456
62.3978
28.9941
-7.74518
-44.0633
-78.149
-108.627
-135.129
-156.392
-172.654
-185.265
-192.621
-199.325
-204.076
-207.492
-209.853
-211.419
-212.415
-212.996
-213.295
-213.407
-213.407
-213.35
-213.275
-213.211
-213.175
202.831
202.813
202.77
202.689
202.552
202.33
201.985
201.468
200.715
199.642
198.151
196.104
193.345
189.702
184.806
183.754
176.135
166.51
157.997
145.146
127.063
105.647
81.2623
53.7243
24.5424
-7.135
-38.5041
-68.275
-95.401
-119.698
-139.968
-155.853
-168.64
-177.122
-184.535
-190.08
-194.307
-197.444
-199.736
-201.388
-202.548
-203.348
-203.883
-204.229
-204.444
-204.572
-204.641
-204.671
195.128
195.062
194.924
194.7
194.37
193.903
193.26
192.391
191.231
189.697
187.692
185.087
181.732
177.48
171.988
170.245
162.114
152.166
143.382
130.676
113.418
93.5173
71.3141
46.7478
20.9879
-6.67635
-34.0998
-60.3421
-84.6016
-106.841
-125.975
-141.268
-153.946
-163.132
-170.985
-177.087
-181.921
-185.664
-188.54
-190.733
-192.382
-193.611
-194.513
-195.163
-195.62
-195.927
-196.116
-196.205
187.46
187.352
187.128
186.775
186.272
185.587
184.683
183.506
181.995
180.069
177.636
174.577
170.751
166.037
160.12
157.845
149.418
139.364
130.515
118.135
101.789
83.3437
63.0824
41.038
18.1028
-6.31268
-30.5306
-53.8508
-75.6543
-96.0139
-113.968
-128.553
-140.933
-150.504
-158.587
-165.055
-170.32
-174.52
-177.855
-180.485
-182.537
-184.126
-185.34
-186.252
-186.919
-187.383
-187.677
-187.818
179.858
179.712
179.413
178.946
178.29
177.416
176.284
174.844
173.036
170.785
168.003
164.585
160.399
155.348
149.149
146.476
137.92
127.921
119.154
107.211
91.803
74.7215
56.1848
36.2953
15.7279
-6.01051
-27.5807
-48.452
-68.1416
-86.8029
-103.592
-117.413
-129.374
-139.095
-147.249
-153.928
-159.481
-164.009
-167.692
-170.663
-173.04
-174.924
-176.399
-177.532
-178.377
-178.977
-179.36
-179.547
172.349
172.17
171.804
171.238
170.451
169.414
168.089
166.428
164.375
161.86
158.802
155.108
150.659
145.379
139.016
136.055
127.5
117.671
109.088
97.6458
83.1652
67.3442
50.3404
32.3061
13.7494
-5.74928
-25.1009
-43.8968
-61.7565
-78.8898
-94.5587
-107.602
-119.073
-128.77
-136.875
-143.642
-149.364
-154.115
-158.049
-161.279
-163.908
-166.029
-167.715
-169.03
-170.025
-170.738
-171.198
-171.423
164.956
164.748
164.326
163.675
162.777
161.602
160.117
158.275
156.024
153.301
150.033
146.137
141.509
136.089
129.657
126.501
118.042
108.465
100.133
89.225
75.6407
60.9763
45.3382
28.9136
12.0838
-5.51598
-22.9846
-40.0033
-56.2688
-72.0288
-86.6391
-98.9149
-109.856
-119.404
-127.373
-134.133
-139.93
-144.813
-148.916
-152.332
-155.151
-157.454
-159.308
-160.77
-161.885
-162.691
-163.214
-163.471
157.699
157.467
156.997
156.276
155.285
153.999
152.383
150.397
147.992
145.111
141.69
137.658
132.921
127.435
121.01
117.732
109.443
100.172
92.1353
81.7722
69.0419
55.4352
41.018
26.0007
10.6685
-5.30221
-21.1546
-36.6366
-51.5042
-66.0296
-79.6482
-91.181
-101.577
-110.888
-118.657
-125.337
-131.133
-136.076
-140.279
-143.818
-146.772
-149.21
-151.191
-152.766
-153.977
-154.857
-155.431
-155.713
150.595
150.344
149.835
149.056
147.991
146.615
144.897
142.8
140.281
137.288
133.764
129.649
124.863
119.373
113.015
109.674
101.606
92.6776
84.9633
75.1427
63.2184
50.5784
37.2564
23.4782
9.45635
-5.1025
-19.5534
-33.695
-47.3292
-60.7418
-73.4371
-84.2598
-94.1096
-103.123
-110.647
-117.193
-122.929
-127.872
-132.118
-135.728
-138.768
-141.299
-143.372
-145.031
-146.315
-147.251
-147.864
-148.166
143.658
143.391
142.851
142.028
140.905
139.46
137.666
135.488
132.889
129.823
126.24
122.09
117.303
111.859
105.614
102.257
94.447
85.883
78.5055
69.216
58.0486
46.2924
33.9566
21.2769
8.41035
-4.9132
-18.1377
-31.1005
-43.6396
-56.0466
-67.8848
-78.0342
-87.3469
-96.0236
-103.273
-109.643
-115.273
-120.169
-124.41
-128.047
-131.134
-133.721
-135.854
-137.572
-138.907
-139.885
-140.526
-140.843
136.899
136.62
136.057
135.2
134.034
132.54
130.693
128.462
125.813
122.708
119.103
114.958
110.21
104.85
98.7549
95.4196
87.8916
79.7028
72.6683
63.8928
53.4337
42.4866
31.0418
19.342
7.50148
-4.73186
-16.874
-28.7926
-40.3537
-51.8494
-62.8925
-72.4068
-81.198
-89.5135
-96.4693
-102.635
-108.123
-112.935
-117.134
-120.76
-123.859
-126.472
-128.639
-130.392
-131.76
-132.765
-133.426
-133.753
130.326
130.039
129.46
128.579
127.385
125.858
123.978
121.717
119.046
115.932
112.336
108.227
103.552
98.3074
92.3884
89.1038
81.8737
74.0638
67.3719
59.0909
49.2937
39.0884
28.4507
17.629
6.70639
-4.55665
-15.7364
-26.7238
-37.4068
-48.0736
-58.3798
-67.2969
-75.586
-83.5271
-90.1783
-96.1182
-101.441
-106.138
-110.266
-113.851
-116.933
-119.546
-121.723
-123.491
-124.876
-125.897
-126.569
-126.903
123.947
123.654
123.064
122.17
120.959
119.415
117.519
115.249
112.579
109.48
105.921
101.874
97.2979
92.1926
86.4701
83.2588
76.3352
68.9023
62.5485
54.7413
45.5631
36.0396
26.133
16.0997
6.00609
-4.38548
-14.7039
-24.8561
-34.7469
-44.6571
-54.2798
-62.6363
-70.4451
-78.0066
-84.3483
-90.0495
-95.187
-99.7492
-103.78
-107.3
-110.342
-112.933
-115.1
-116.868
-118.256
-119.282
-119.959
-120.295
117.765
117.47
116.875
115.974
114.757
113.209
111.315
109.053
106.403
103.34
99.8383
95.8769
91.4192
86.4712
80.9605
77.8396
71.2245
64.163
58.1408
50.786
42.1884
33.2961
24.0496
14.7119
5.38771
-4.21456
-13.7593
-23.1592
-32.3319
-41.5495
-50.537
-58.3676
-65.719
-72.9033
-78.9337
-84.3887
-89.3286
-93.7388
-97.6546
-101.091
-104.073
-106.625
-108.766
-110.518
-111.898
-112.92
-113.595
-113.931
111.782
111.486
110.892
109.992
108.778
107.238
105.358
103.12
100.507
97.4975
94.0709
90.2112
85.8882
81.1098
75.8207
72.8111
66.4962
59.7979
54.0987
47.1759
39.1251
30.8263
22.2019
13.3469
4.86507
-4.03854
-12.8893
-21.6091
-30.1283
-38.7086
-47.1052
-54.4428
-61.3565
-68.1713
-73.8925
-79.099
-83.8332
-88.0798
-91.8669
-95.2042
-98.1124
-100.609
-102.711
-104.436
-105.798
-106.808
-107.477
-107.809
105.999
105.705
105.114
104.222
103.019
101.497
99.6426
97.4416
94.8786
91.9376
88.6004
84.8557
80.6799
76.0809
71.0195
68.1584
62.1197
55.7627
50.3829
43.1337
35.6875
27.945
19.5413
12.4218
3.82163
-4.35287
-12.5307
-20.5865
-28.4617
-36.0835
-43.9449
-50.8238
-57.2874
-63.7745
-69.1914
-74.1483
-78.6715
-82.7469
-86.3953
-89.6223
-92.4441
-94.874
-96.9264
-98.6144
-99.9497
-100.942
-101.599
-101.927
100.415
100.125
99.5415
98.6616
97.4778
95.9816
94.1625
92.0089
89.5078
86.6463
83.4097
79.7896
75.7682
71.3546
66.4607
61.2627
58.1908
52.0173
45.6507
40.1843
33.2021
26.0279
18.9695
8.54522
3.65024
-4.0866
-11.7079
-19.2073
-26.5458
-33.6563
-40.9937
-47.4555
-54.1269
-59.5978
-64.7946
-69.5043
-73.8165
-77.7168
-81.2196
-84.3278
-87.0541
-89.4084
-91.402
-93.0452
-94.3475
-95.3167
-95.9595
-96.2795
95.0271
94.7422
94.17
93.3072
92.1478
90.6848
88.9094
86.812
84.3821
81.6093
78.482
74.9937
71.1297
66.9097
62.2519
57.3076
54.392
48.5669
42.5238
36.2627
29.7288
23.0836
15.1996
9.92054
2.52401
-4.79201
-11.7839
-18.685
-25.4354
-31.9945
-38.307
-44.3145
-50.6119
-55.7742
-60.6774
-65.1387
-69.2443
-72.9675
-76.3202
-79.3038
-81.9279
-84.1995
-86.1273
-87.7195
-88.9833
-89.9252
-90.5504
-90.8619
89.8326
89.5543
88.9955
88.1536
87.0237
85.5998
83.8748
81.8409
79.4895
76.8128
73.8016
70.4518
66.7496
62.7236
58.3077
53.5052
48.5701
45.515
39.6898
33.7986
27.7067
21.6384
15.9096
6.69108
3.25871
-4.48223
-11.0159
-17.4486
-23.7445
-29.8647
-35.7471
-42.1373
-47.2219
-52.2053
-56.8145
-61.0343
-64.9346
-68.479
-71.6789
-74.5339
-77.0509
-79.2345
-81.0914
-82.6276
-83.8488
-84.76
-85.3653
-85.667
84.8272
84.5565
84.0134
83.1957
82.0993
80.7194
79.0502
77.0855
74.8187
72.2437
69.3537
66.1472
62.61
58.7701
54.5937
50.0443
45.2701
40.2296
34.9777
29.4466
23.5158
16.3476
12.9377
8.20106
-0.906736
-5.70392
-11.5834
-17.4593
-23.2023
-28.8064
-34.1347
-39.2735
-44.1624
-48.8515
-53.1768
-57.1707
-60.8677
-64.2331
-67.2791
-70.0031
-72.4096
-74.5015
-76.2835
-77.7601
-78.9354
-79.8132
-80.3969
-80.6879
80.0057
79.7437
79.218
78.4271
77.3675
76.0355
74.4265
72.5357
70.3579
67.8889
65.1235
62.0629
58.6941
55.039
51.0903
46.8195
42.2904
37.567
32.5674
27.3763
22.1485
15.3963
12.0853
7.50513
-0.912412
-5.12345
-10.8801
-16.3363
-21.6699
-26.9019
-31.9212
-36.7066
-41.3197
-45.6927
-49.7536
-53.5286
-57.0239
-60.2121
-63.1046
-65.6963
-67.9903
-69.988
-71.6925
-73.1066
-74.2337
-75.0762
-75.6367
-75.9163
75.3623
75.1096
74.6028
73.8408
72.8208
71.5398
69.9944
68.1809
66.0956
63.7356
61.0972
58.1835
54.9848
51.5168
47.7838
43.7756
39.5235
35.0699
30.3686
25.5112
20.9956
14.9866
10.7843
6.15786
-0.610737
-4.60567
-10.262
-15.2964
-20.2613
-25.132
-29.8318
-34.3272
-38.6359
-42.7156
-46.5307
-50.0894
-53.3857
-56.3998
-59.1399
-61.5993
-63.78
-65.6819
-67.307
-68.657
-69.7339
-70.5397
-71.0761
-71.3438
70.891
70.6482
70.1615
69.4301
68.4517
67.2242
65.745
64.0114
62.0209
59.7719
57.2618
54.4948
51.4652
48.1845
44.6595
40.8905
36.9002
32.7205
28.3412
23.7512
19.5974
14.1006
9.79157
5.36777
-0.511712
-4.30602
-9.66582
-14.2809
-18.9284
-23.4681
-27.8533
-32.0649
-36.0898
-39.9062
-43.4887
-46.8351
-49.9376
-52.7813
-55.3708
-57.6988
-59.7661
-61.5717
-63.1164
-64.401
-65.4268
-66.1948
-66.7064
-66.9618
66.585
66.3525
65.8868
65.1873
64.2522
63.08
61.6688
60.0169
58.1226
55.9857
53.6043
50.9833
48.1199
45.0237
41.7016
38.1582
34.4122
30.4949
26.4182
22.0691
18.1309
13.0555
9.05602
4.93742
-0.485984
-4.09469
-9.08064
-13.3104
-17.666
-21.8945
-25.9823
-29.9166
-33.6783
-37.2499
-40.6087
-43.7495
-46.6647
-49.3422
-51.7837
-53.9818
-55.9364
-57.6457
-59.1097
-60.3285
-61.3024
-62.0321
-62.5184
-62.7612
62.4371
62.2154
61.7714
61.1046
60.2139
59.0983
57.7564
56.1873
54.3902
52.3655
50.1125
47.6361
44.9357
42.0199
38.896
35.5706
32.0579
28.3842
24.5863
20.4973
16.7936
12.1045
8.39783
4.55868
-0.464129
-3.86914
-8.50329
-12.3997
-16.4756
-20.4056
-24.2145
-27.8845
-31.3963
-34.7336
-37.8766
-40.8192
-43.5536
-46.0692
-48.3657
-50.4359
-52.2791
-53.8928
-55.2763
-56.429
-57.3509
-58.042
-58.5028
-58.7329
58.4403
58.2296
57.8078
57.1745
56.3291
55.2708
53.999
52.5134
50.8136
48.9008
46.7752
44.4416
41.9009
39.1613
36.2301
33.1155
29.8287
26.3877
22.853
19.0354
15.5857
11.2478
7.76053
4.16779
-0.44724
-3.63049
-7.94201
-11.5432
-15.3494
-18.9952
-22.5412
-25.96
-29.2328
-32.3453
-35.2808
-38.0323
-40.5919
-42.95
-45.1049
-47.0498
-48.7833
-50.3024
-51.606
-52.693
-53.5629
-54.2154
-54.6505
-54.8679
54.5871
54.3876
53.9882
53.3889
52.5892
51.5888
50.3875
48.9853
47.3827
45.5811
43.5814
41.3885
39.0044
36.4365
33.6923
30.781
27.7131
24.4981
21.2133
17.6575
14.4493
10.4363
7.15577
3.79999
-0.435077
-3.40008
-7.40486
-10.7319
-14.2781
-17.6555
-20.9523
-24.1313
-27.176
-30.0737
-32.81
-35.3774
-37.7679
-39.973
-41.9899
-43.8122
-45.4379
-46.8639
-48.0885
-49.1104
-49.9287
-50.5427
-50.9523
-51.157
50.8697
50.6815
50.3048
49.7397
48.986
48.0436
46.9128
45.5939
44.0878
42.3963
40.5209
38.4663
36.2352
33.8348
31.2721
28.5567
25.7
22.7038
19.6554
16.347
13.363
9.65699
6.59315
3.47208
-0.422349
-3.18074
-6.89147
-9.95992
-13.2559
-16.3797
-19.4395
-22.3891
-25.2161
-27.9087
-30.4538
-32.8437
-35.0708
-37.1274
-39.01
-40.7126
-42.2328
-43.5672
-44.714
-45.6715
-46.4387
-47.0146
-47.3989
-47.591
47.2807
47.1038
46.7499
46.2191
45.5114
44.6271
43.5664
42.3304
40.9199
39.3372
37.584
35.6651
33.5835
31.3462
28.9599
26.4336
23.7801
20.9948
18.1713
15.1005
12.3301
8.91475
6.06845
3.17619
-0.407663
-2.96745
-6.39783
-9.22332
-12.279
-15.1624
-17.996
-20.7263
-23.3453
-25.8414
-28.2025
-30.4214
-32.4907
-34.4032
-36.1552
-37.741
-39.158
-40.4027
-41.4731
-42.3672
-43.084
-43.6222
-43.9815
-44.1612
43.8122
43.6467
43.3155
42.819
42.1572
41.3306
40.3398
39.1859
37.87
36.3945
34.7615
32.9756
31.0401
28.9616
26.7465
24.4032
21.9456
19.3639
16.7556
13.9151
11.3517
8.21035
5.57429
2.90232
-0.392104
-2.75795
-5.92161
-8.51857
-11.3437
-13.9985
-16.6159
-19.1363
-21.556
-23.8633
-26.0474
-28.1013
-30.0179
-31.7908
-33.4159
-34.8879
-36.2041
-37.3609
-38.3563
-39.1882
-39.8553
-40.3565
-40.6911
-40.8584
40.4564
40.3022
39.9937
39.5313
38.9152
38.146
37.2244
36.1517
34.9292
33.5593
32.0444
30.3887
28.5959
26.6721
24.6235
22.4576
20.1892
17.8047
15.4029
12.7851
10.4219
7.53981
5.10602
2.64623
-0.376105
-2.55248
-5.46207
-7.84259
-10.4459
-12.8832
-15.2934
-17.6124
-19.8409
-21.9667
-23.9802
-25.8747
-27.6437
-29.2811
-30.7829
-32.1441
-33.3618
-34.4327
-35.3546
-36.1254
-36.7438
-37.2084
-37.5187
-37.6739
37.2058
37.0628
36.7769
36.3484
35.7776
35.0653
34.2122
33.2198
32.0893
30.8234
29.4244
27.8963
26.2429
24.4699
22.5832
20.5893
18.5041
16.3106
14.1074
11.7042
9.53474
6.89904
4.66115
2.40648
-0.359266
-2.35128
-5.01847
-7.19266
-9.5825
-11.812
-14.0231
-16.1489
-18.1935
-20.1444
-21.9933
-23.7338
-25.3599
-26.8658
-28.2477
-29.5009
-30.6226
-31.6095
-32.4594
-33.1704
-33.7409
-34.1697
-34.4561
-34.5994
34.0525
33.9207
33.6572
33.2624
32.7365
32.0805
31.2952
30.3819
29.3422
28.1786
26.8933
25.4902
23.973
22.3471
20.6181
18.7914
16.8835
14.8754
12.8635
10.6674
8.6855
6.28513
4.23754
2.1815
-0.34129
-2.15408
-4.5895
-6.56619
-8.75016
-10.7806
-12.8002
-14.7399
-16.6074
-18.3897
-20.0795
-21.6709
-23.1584
-24.5366
-25.8019
-26.9499
-27.9779
-28.8827
-29.6622
-30.3145
-30.8381
-31.2317
-31.4946
-31.6261
30.9888
30.8681
30.6268
30.2653
29.784
29.1837
28.4653
27.6302
26.6799
25.6168
24.4432
23.1627
21.7788
20.2964
18.7211
17.0571
15.3214
13.4933
11.6663
9.67034
7.87063
5.69564
3.83293
1.96943
-0.322262
-1.96046
-4.17382
-5.96076
-7.94599
-9.7853
-11.62
-13.3804
-15.0769
-16.696
-18.2319
-19.6789
-21.0317
-22.2858
-23.4376
-24.483
-25.4194
-26.244
-26.9546
-27.5494
-28.0269
-28.386
-28.6259
-28.7459
28.0073
27.8976
27.6783
27.3498
26.9125
26.3673
25.7151
24.9571
24.0949
23.1307
22.0668
20.9065
19.6531
18.3111
16.8857
15.3803
13.8119
12.159
10.5112
8.70915
7.08677
5.12816
3.44521
1.76855
-0.302367
-1.77019
-3.77024
-5.37424
-7.16731
-8.82252
-10.4784
-12.0656
-13.5965
-15.0577
-16.4442
-17.7509
-18.9729
-20.1062
-21.1473
-22.0926
-22.9396
-23.6857
-24.3288
-24.8672
-25.2996
-25.6248
-25.8421
-25.9508
25.1002
25.0014
24.8039
24.5082
24.1145
23.6238
23.0368
22.3549
21.5796
20.7129
19.7568
18.7145
17.589
16.3844
15.1057
13.7551
12.3497
10.8674
9.39386
7.77995
6.33048
4.58025
3.07241
1.57739
-0.281739
-1.58302
-3.37762
-4.80464
-6.41151
-7.88886
-9.37144
-10.7908
-12.1611
-13.4689
-14.7103
-15.8804
-16.9751
-17.9905
-18.9236
-19.7711
-20.5306
-21.1998
-21.7769
-22.2601
-22.6482
-22.94
-23.1351
-23.2327
22.2601
22.1721
21.9962
21.7328
21.3823
20.9455
20.4231
19.8164
19.1267
18.3559
17.506
16.5798
15.5799
14.51
13.3748
12.1757
10.9295
9.61389
8.31
6.87906
5.59856
4.04958
2.71274
1.39472
-0.260504
-1.39868
-2.99485
-4.25008
-5.67614
-6.98111
-8.29522
-9.55152
-10.7657
-11.9242
-13.0243
-14.0613
-15.0317
-15.932
-16.7595
-17.5112
-18.1851
-18.779
-19.2912
-19.7201
-20.0647
-20.3239
-20.4971
-20.5838
19.4797
19.4024
19.2479
19.0166
18.7088
18.3252
17.8667
17.3342
16.7291
16.0531
15.3078
14.4958
13.6194
12.6819
11.6876
10.637
9.54641
8.39392
7.25574
6.00312
4.88811
3.53402
2.36453
1.2194
-0.238756
-1.21685
-2.62087
-3.70881
-4.95892
-6.09634
-7.24628
-8.34383
-9.40568
-10.4186
-11.3807
-12.2877
-13.1365
-13.9241
-14.6482
-15.3061
-15.896
-16.4159
-16.8644
-17.24
-17.5418
-17.7689
-17.9206
-17.9966
16.7515
16.6849
16.5516
16.3521
16.0866
15.7559
15.3605
14.9015
14.38
13.7975
13.1554
12.456
11.7014
10.8942
10.0383
9.13363
8.19581
7.20323
6.22734
5.14895
4.19636
3.0315
2.0262
1.05034
-0.216609
-1.0372
-2.25462
-3.17921
-4.25767
-5.23169
-6.22121
-7.16372
-8.07666
-8.94718
-9.77417
-10.5538
-11.2834
-11.9606
-12.5831
-13.1489
-13.6562
-14.1034
-14.4892
-14.8124
-15.0721
-15.2675
-15.3981
-15.4635
14.0679
14.0117
13.8995
13.7315
13.5081
13.2297
12.8969
12.5107
12.072
11.582
11.042
10.4539
9.81954
9.14077
8.42141
7.66049
6.87289
6.03753
5.22106
4.31339
3.5207
2.53995
1.69569
0.886338
-0.193933
-0.859131
-1.89495
-2.65957
-3.57016
-4.38434
-5.21661
-6.00719
-6.77406
-7.50483
-8.1992
-8.85371
-9.46628
-10.0348
-10.5575
-11.0325
-11.4586
-11.8342
-12.1582
-12.4297
-12.6479
-12.812
-12.9217
-12.9767
11.4234
11.3777
11.2864
11.1497
10.9679
10.7415
10.4708
10.1568
9.80002
9.40166
8.96276
8.48475
7.96916
7.4174
6.8328
6.21374
5.57421
4.89371
4.23415
3.49409
2.85911
2.05774
1.37209
0.726563
-0.171035
-0.68259
-1.54132
-2.14893
-2.89501
-3.55233
-4.23009
-4.87139
-5.49462
-6.08796
-6.65185
-7.18324
-7.68054
-8.14205
-8.56635
-8.95201
-9.29789
-9.60283
-9.86595
-10.0864
-10.2636
-10.3969
-10.486
-10.5306
8.80369
8.76836
8.69789
8.59243
8.45215
8.27742
8.06865
7.8264
7.55128
7.24411
6.90573
6.53722
6.13975
5.7142
5.26342
4.78514
4.29234
3.76518
3.26091
2.68665
2.20869
1.58296
1.04833
0.568312
-0.144709
-0.505003
-1.19093
-1.64432
-2.22847
-2.73106
-3.25606
-3.74979
-4.23096
-4.68842
-5.12326
-5.53282
-5.91604
-6.27159
-6.59845
-6.89553
-7.16197
-7.39689
-7.5996
-7.76944
-7.90594
-8.00864
-8.0773
-8.11174
6.23322
6.20845
6.15855
6.08383
5.98443
5.86063
5.71272
5.54112
5.34625
5.12872
4.88911
4.62816
4.34671
4.04517
3.72588
3.38604
3.03743
2.6609
2.30851
1.89604
1.57114
1.11756
0.73501
0.413969
-0.120604
-0.334239
-0.85004