/*--------------------------------*- C++ -*----------------------------------*\
| =========                 |                                                 |
| \\      /  F ield         | foam-extend: Open Source CFD                    |
|  \\    /   O peration     | Version:     4.1                                |
|   \\  /    A nd           | Web:         http://www.foam-extend.org         |
|    \\/     M anipulation  |                                                 |
\*---------------------------------------------------------------------------*/
FoamFile
{
    version     2.0;
    format      ascii;
    class       volVectorField;
    location    "0";
    object      U;
}
// * * * * * * * * * * * * * * * * * * * * * * * * * * * * * * * * * * * * * //

dimensions      [0 1 -1 0 0 0 0];

internalField   nonuniform List<vector> 
35801
(
(100 -6.34953e-05 0)
(100 -0.000162447 0)
(100 -0.000174852 0)
(100 -3.83503e-05 0)
(99.9999 0.000314672 0)
(99.9998 0.000960615 0)
(99.9998 0.00198707 0)
(99.9996 0.00349541 0)
(99.9995 0.00560321 0)
(99.9994 0.00844626 0)
(99.9992 0.0121794 0)
(99.9989 0.0169753 0)
(99.9987 0.0230199 0)
(99.9983 0.0305014 0)
(99.998 0.0395903 0)
(99.9976 0.0504069 0)
(99.9973 0.0629789 0)
(99.997 0.0771886 0)
(99.9967 0.0927303 0)
(99.9966 0.109061 0)
(99.9967 0.125369 0)
(99.997 0.140587 0)
(99.9977 0.153489 0)
(99.9985 0.162869 0)
(99.9995 0.167777 0)
(100.001 0.167717 0)
(100.002 0.162761 0)
(100.002 0.153521 0)
(100.003 0.140989 0)
(100.003 0.126326 0)
(100.003 0.110662 0)
(100.003 0.0949676 0)
(100.003 0.0799951 0)
(100.003 0.0662602 0)
(100.002 0.0540506 0)
(100.002 0.0434717 0)
(100.002 0.0344969 0)
(100.001 0.0270177 0)
(100.001 0.020882 0)
(100.001 0.0159202 0)
(100.001 0.0119617 0)
(100.001 0.00884418 0)
(100 0.00641788 0)
(100 0.00454739 0)
(100 0.00311107 0)
(100 0.00199927 0)
(100 0.00111083 0)
(100 0.000355099 0)
(100 -0.000206041 0)
(100 -0.00053449 0)
(99.9999 -0.00060509 0)
(99.9996 -0.000232329 0)
(99.9992 0.000785256 0)
(99.9986 0.0026755 0)
(99.9979 0.0056997 0)
(99.9969 0.0101606 0)
(99.9958 0.0164097 0)
(99.9944 0.0248537 0)
(99.9927 0.0359575 0)
(99.9907 0.0502414 0)
(99.9884 0.0682683 0)
(99.9857 0.0906134 0)
(99.9828 0.117806 0)
(99.9797 0.150231 0)
(99.9766 0.187994 0)
(99.9739 0.230786 0)
(99.9719 0.277693 0)
(99.9711 0.32712 0)
(99.9719 0.376634 0)
(99.9748 0.422981 0)
(99.9799 0.462375 0)
(99.9871 0.491073 0)
(99.9957 0.506096 0)
(100.005 0.50589 0)
(100.013 0.490687 0)
(100.02 0.462408 0)
(100.024 0.424161 0)
(100.027 0.379544 0)
(100.028 0.332013 0)
(100.027 0.284503 0)
(100.025 0.239306 0)
(100.023 0.197942 0)
(100.02 0.161257 0)
(100.017 0.129537 0)
(100.014 0.102674 0)
(100.012 0.0803204 0)
(100.01 0.0620064 0)
(100.008 0.0472145 0)
(100.006 0.0354279 0)
(100.005 0.0261568 0)
(100.004 0.0189517 0)
(100.003 0.0134064 0)
(100.002 0.00915689 0)
(100.002 0.00587581 0)
(100.001 0.00326206 0)
(100.001 0.00104277 0)
(100.001 -0.000400633 0)
(100 -0.00106491 0)
(99.9998 -0.00130652 0)
(99.9989 -0.00082127 0)
(99.9977 0.00072139 0)
(99.9961 0.00369599 0)
(99.994 0.00853271 0)
(99.9913 0.015731 0)
(99.9881 0.0258727 0)
(99.9841 0.0396334 0)
(99.9793 0.0577897 0)
(99.9736 0.0812177 0)
(99.9669 0.110876 0)
(99.9593 0.147761 0)
(99.9509 0.19282 0)
(99.942 0.246781 0)
(99.9332 0.30995 0)
(99.9253 0.381818 0)
(99.9195 0.461071 0)
(99.9169 0.545064 0)
(99.9191 0.629757 0)
(99.9273 0.709526 0)
(99.9421 0.777692 0)
(99.9627 0.827538 0)
(99.9875 0.853653 0)
(100.013 0.853206 0)
(100.037 0.826639 0)
(100.057 0.777471 0)
(100.07 0.711339 0)
(100.078 0.634674 0)
(100.08 0.553454 0)
(100.077 0.472776 0)
(100.072 0.396367 0)
(100.065 0.326842 0)
(100.057 0.265487 0)
(100.048 0.212674 0)
(100.04 0.16812 0)
(100.033 0.13117 0)
(100.027 0.100988 0)
(100.022 0.0766771 0)
(100.017 0.0573589 0)
(100.013 0.0422076 0)
(100.01 0.0304709 0)
(100.008 0.0214731 0)
(100.006 0.0146104 0)
(100.005 0.0093422 0)
(100.004 0.00517314 0)
(100.003 0.00165174 0)
(100.002 -0.000689479 0)
(100.001 -0.00188227 0)
(99.9998 -0.00249953 0)
(99.998 -0.00212637 0)
(99.9956 -0.000311832 0)
(99.9923 0.00345653 0)
(99.9881 0.00976875 0)
(99.9828 0.0193124 0)
(99.9763 0.0328923 0)
(99.9684 0.0514488 0)
(99.9588 0.0760722 0)
(99.9473 0.108007 0)
(99.9339 0.148638 0)
(99.9186 0.199447 0)
(99.9015 0.261904 0)
(99.8833 0.337247 0)
(99.8652 0.425984 0)
(99.8492 0.528231 0)
(99.837 0.641411 0)
(99.8311 0.762611 0)
(99.8349 0.886102 0)
(99.8512 1.00356 0)
(99.8811 1.10477 0)
(99.9234 1.17923 0)
(99.9742 1.21828 0)
(100.028 1.21739 0)
(100.077 1.17731 0)
(100.116 1.10375 0)
(100.144 1.00568 0)
(100.158 0.893105 0)
(100.162 0.775093 0)
(100.157 0.658285 0)
(100.146 0.549131 0)
(100.131 0.450483 0)
(100.114 0.36415 0)
(100.097 0.290377 0)
(100.081 0.228529 0)
(100.067 0.177513 0)
(100.054 0.136042 0)
(100.043 0.102792 0)
(100.034 0.0764892 0)
(100.027 0.0559595 0)
(100.021 0.0401437 0)
(100.016 0.028099 0)
(100.012 0.0189876 0)
(100.009 0.0120637 0)
(100.008 0.00664724 0)
(100.007 0.00211696 0)
(100.003 -0.00111004 0)
(100.002 -0.00310065 0)
(100 -0.00437978 0)
(99.9972 -0.00443324 0)
(99.9931 -0.00270212 0)
(99.9877 0.00145114 0)
(99.9808 0.00876317 0)
(99.9721 0.0200964 0)
(99.9613 0.0364667 0)
(99.9482 0.0590707 0)
(99.9322 0.0893107 0)
(99.9131 0.128812 0)
(99.8907 0.179422 0)
(99.8649 0.243184 0)
(99.8359 0.322249 0)
(99.8048 0.418513 0)
(99.7739 0.534144 0)
(99.7448 0.665643 0)
(99.7228 0.81622 0)
(99.711 0.978692 0)
(99.7158 1.14691 0)
(99.7423 1.30919 0)
(99.793 1.45077 0)
(99.8663 1.55582 0)
(99.9551 1.61103 0)
(100.048 1.60931 0)
(100.134 1.55195 0)
(100.202 1.44792 0)
(100.248 1.31092 0)
(100.272 1.15614 0)
(100.278 0.994776 0)
(100.267 0.84064 0)
(100.246 0.694959 0)
(100.219 0.566059 0)
(100.19 0.454466 0)
(100.161 0.360066 0)
(100.135 0.281598 0)
(100.11 0.21735 0)
(100.089 0.165469 0)
(100.071 0.124134 0)
(100.056 0.091643 0)
(100.044 0.0664576 0)
(100.034 0.0472098 0)
(100.026 0.0326945 0)
(100.019 0.0218505 0)
(100.015 0.0137383 0)
(100.012 0.00750755 0)
(100.011 0.00238023 0)
(100.005 -0.00169356 0)
(100.004 -0.00481527 0)
(100.001 -0.00711084 0)
(99.9967 -0.00798141 0)
(99.9907 -0.00677603 0)
(99.9828 -0.00274869 0)
(99.9726 0.00496593 0)
(99.9598 0.0173867 0)
(99.9439 0.0357222 0)
(99.9244 0.0614095 0)
(99.9007 0.0961536 0)
(99.8723 0.141963 0)
(99.8387 0.201177 0)
(99.7997 0.276472 0)
(99.7554 0.370858 0)
(99.707 0.487769 0)
(99.6573 0.624037 0)
(99.6494 0.735224 0)
(99.6113 0.902856 0)
(99.5858 1.09605 0)
(99.5814 1.30144 0)
(99.6064 1.50565 0)
(99.6666 1.69049 0)
(99.7617 1.83478 0)
(99.8836 1.91912 0)
(100.017 1.93161 0)
(100.144 1.87178 0)
(100.248 1.75034 0)
(100.32 1.58513 0)
(100.36 1.39636 0)
(100.372 1.20246 0)
(100.41 1.00853 0)
(100.375 0.831484 0)
(100.331 0.670252 0)
(100.285 0.533345 0)
(100.241 0.419037 0)
(100.2 0.325022 0)
(100.163 0.248748 0)
(100.132 0.187668 0)
(100.105 0.139394 0)
(100.082 0.101761 0)
(100.064 0.0728546 0)
(100.049 0.051002 0)
(100.037 0.0347474 0)
(100.028 0.0228208 0)
(100.021 0.0141065 0)
(100.017 0.00760264 0)
(100.015 0.0023918 0)
(100.008 -0.00246623 0)
(100.007 -0.007106 0)
(100.003 -0.0108303 0)
(99.997 -0.0129731 0)
(99.9888 -0.0128108 0)
(99.978 -0.00950957 0)
(99.9641 -0.00209817 0)
(99.9466 0.010574 0)
(99.9248 0.0298822 0)
(99.898 0.0574782 0)
(99.8653 0.0953466 0)
(99.8259 0.145865 0)
(99.7791 0.211865 0)
(99.7241 0.29672 0)
(99.6609 0.404229 0)
(99.5908 0.537514 0)
(99.5649 0.65414 0)
(99.5037 0.823768 0)
(99.4437 1.03895 0)
(99.4007 1.28118 0)
(99.3884 1.54462 0)
(99.4204 1.81395 0)
(99.5076 2.06468 0)
(99.6519 2.26556 0)
(99.8408 2.38589 0)
(100.049 2.40586 0)
(100.244 2.32427 0)
(100.401 2.15824 0)
(100.506 1.93557 0)
(100.558 1.68531 0)
(100.565 1.43009 0)
(100.536 1.18358 0)
(100.533 0.948539 0)
(100.467 0.758395 0)
(100.399 0.597185 0)
(100.334 0.464302 0)
(100.276 0.356379 0)
(100.225 0.269758 0)
(100.18 0.20108 0)
(100.143 0.14733 0)
(100.111 0.105858 0)
(100.086 0.0743775 0)
(100.065 0.0509212 0)
(100.049 0.0338025 0)
(100.037 0.0215656 0)
(100.028 0.0129414 0)
(100.022 0.00680045 0)
(100.019 0.00210828 0)
(100.013 -0.00344892 0)
(100.011 -0.0100366 0)
(100.006 -0.0156483 0)
(99.9984 -0.0195712 0)
(99.9879 -0.0210313 0)
(99.9739 -0.0191318 0)
(99.956 -0.0128232 0)
(99.9333 -0.000854798 0)
(99.905 0.0182805 0)
(99.87 0.0464101 0)
(99.8273 0.0857576 0)
(99.7756 0.139029 0)
(99.7135 0.2095 0)
(99.6401 0.301144 0)
(99.5547 0.41914 0)
(99.4578 0.564893 0)
(99.4207 0.699223 0)
(99.3257 0.905709 0)
(99.2375 1.16047 0)
(99.1685 1.45681 0)
(99.1391 1.7892 0)
(99.1724 2.1406 0)
(99.2888 2.47851 0)
(99.4956 2.75655 0)
(99.7754 2.92535 1.87587e-32)
(100.086 2.95178 0)
(100.374 2.8344 0)
(100.599 2.60242 0)
(100.741 2.30044 0)
(100.804 1.97096 0)
(100.803 1.64672 0)
(100.755 1.35021 0)
(100.722 1.04283 0)
(100.625 0.826255 0)
(100.529 0.641607 0)
(100.441 0.492598 0)
(100.361 0.373156 0)
(100.292 0.278435 0)
(100.233 0.204201 0)
(100.184 0.146779 0)
(100.143 0.103039 0)
(100.109 0.0703373 0)
(100.082 0.0464423 0)
(100.061 0.0294668 0)
(100.045 0.0178005 0)
(100.033 0.0100507 0)
(100.026 0.00498967 0)
(100.022 0.00149316 0)
(100.02 -0.00465616 0)
(100.017 -0.0136514 0)
(100.011 -0.021642 0)
(100.001 -0.0278906 0)
(99.9885 -0.0315982 0)
(99.9712 -0.0318329 0)
(99.949 -0.0274999 0)
(99.9208 -0.0172861 0)
(99.8855 0.000402207 0)
(99.8419 0.0275161 0)
(99.7884 0.0664575 0)
(99.7231 0.120195 0)
(99.6444 0.192409 0)
(99.5503 0.287689 0)
(99.4394 0.411483 0)
(99.3746 0.540726 0)
(99.2541 0.717291 0)
(99.1204 0.957704 0)
(99.0324 1.21125 0)
(98.9277 1.54279 0)
(98.8611 1.93865 0)
(98.8722 2.37661 0)
(98.9966 2.8203 0)
(99.2563 3.20694 0)
(99.636 3.45927 0)
(100.074 3.51827 0)
(100.485 3.37572 0)
(100.801 3.07571 0)
(100.994 2.6865 0)
(101.07 2.26973 0)
(101.097 1.84307 0)
(101.013 1.48086 0)
(100.9 1.16139 0)
(100.805 0.8643 0)
(100.675 0.662495 0)
(100.557 0.500696 0)
(100.454 0.372881 0)
(100.365 0.272948 0)
(100.29 0.195672 0)
(100.227 0.136729 0)
(100.175 0.0925457 0)
(100.133 0.0601674 0)
(100.099 0.0371438 0)
(100.073 0.0214311 0)
(100.053 0.011305 0)
(100.038 0.00528705 0)
(100.029 0.00208565 0)
(100.024 0.00051883 0)
(100.028 -0.00609504 0)
(100.025 -0.0179724 0)
(100.018 -0.0288499 0)
(100.007 -0.03799 0)
(99.9912 -0.0445956 0)
(99.9706 -0.0477308 0)
(99.9439 -0.0462922 0)
(99.9101 -0.0389487 0)
(99.8677 -0.0240733 0)
(99.8151 0.000342841 0)
(99.7503 0.0367997 0)
(99.6709 0.0884254 0)
(99.5744 0.159131 0)
(99.458 0.25394 0)
(99.3191 0.379505 0)
(99.2353 0.513301 0)
(99.0707 0.711286 0)
(98.8882 0.969831 0)
(98.76 1.25411 0)
(98.624 1.61966 0)
(98.5019 2.08801 0)
(98.4705 2.63728 0)
(98.5923 3.22809 0)
(98.9192 3.77518 0)
(99.4469 4.15182 0)
(100.081 4.24868 0)
(100.673 4.04763 0)
(101.11 3.6274 0)
(101.356 3.1019 0)
(101.465 2.54862 0)
(101.456 2.00632 0)
(101.32 1.57736 0)
(101.153 1.2237 0)
(101.003 0.870187 0)
(100.832 0.654949 0)
(100.681 0.485137 0)
(100.551 0.353275 0)
(100.44 0.251714 0)
(100.347 0.174373 0)
(100.27 0.116386 0)
(100.206 0.0738138 0)
(100.155 0.0434649 0)
(100.115 0.0227379 0)
(100.083 0.00949127 0)
(100.058 0.00193805 0)
(100.041 -0.00144192 0)
(100.03 -0.00196382 0)
(100.024 -0.000831658 0)
(100.04 -0.00776473 0)
(100.036 -0.0229971 0)
(100.027 -0.0372688 0)
(100.015 -0.0498667 0)
(99.9966 -0.0600241 0)
(99.9726 -0.0668337 0)
(99.9416 -0.0692232 0)
(99.9023 -0.0658919 0)
(99.8528 -0.0552407 0)
(99.7912 -0.0352806 0)
(99.715 -0.00351287 0)
(99.6213 0.0432302 0)
(99.5067 0.108934 0)
(99.3675 0.198768 0)
(99.1993 0.320838 0)
(99.0878 0.461963 0)
(98.8779 0.664047 0)
(98.6377 0.933472 0)
(98.4508 1.24761 0)
(98.242 1.65904 0)
(98.0307 2.21404 0)
(97.9188 2.90615 0)
(98.0107 3.70998 0)
(98.427 4.50309 0)
(99.1932 5.07804 0)
(100.151 5.21759 0)
(101.021 4.89144 0)
(101.61 4.26446 0)
(101.889 3.52632 0)
(101.963 2.79213 0)
(101.882 2.117 0)
(101.669 1.62157 0)
(101.434 1.22784 0)
(101.212 0.837079 0)
(100.996 0.614752 0)
(100.808 0.443246 0)
(100.648 0.312541 0)
(100.514 0.213541 0)
(100.402 0.139534 0)
(100.31 0.0852538 0)
(100.236 0.0465236 0)
(100.175 0.0200249 0)
(100.127 0.00309389 0)
(100.09 -0.00643523 0)
(100.062 -0.0103517 0)
(100.041 -0.0101667 0)
(100.028 -0.00717486 0)
(100.022 -0.00256337 0)
(100.054 -0.00965646 0)
(100.049 -0.0286989 0)
(100.04 -0.0468536 0)
(100.026 -0.0634567 0)
(100.005 -0.0777997 0)
(99.9782 -0.0890373 0)
(99.9431 -0.0961687 0)
(99.8984 -0.097975 0)
(99.8422 -0.0929498 0)
(99.772 -0.0792091 0)
(99.6848 -0.0543687 0)
(99.5772 -0.0153619 0)
(99.4448 0.041703 0)
(99.2828 0.121739 0)
(99.0851 0.234043 0)
(98.9421 0.376518 0)
(98.6834 0.571963 0)
(98.3787 0.838831 0)
(98.1185 1.16966 0)
(97.8108 1.61541 0)
(97.4656 2.24374 0)
(97.2031 3.08765 0)
(97.1916 4.1514 0)
(97.6565 5.35664 0)
(98.7792 6.31419 0)
(100.289 6.51723 0)
(101.579 5.92336 0)
(102.33 4.93353 0)
(102.599 3.91147 0)
(102.582 2.96341 0)
(102.377 2.14699 0)
(102.057 1.59482 0)
(101.735 1.17321 0)
(101.427 0.758394 0)
(101.159 0.538407 0)
(100.932 0.373076 0)
(100.742 0.249524 0)
(100.584 0.157787 0)
(100.453 0.0908325 0)
(100.347 0.0431955 0)
(100.261 0.0106415 0)
(100.192 -0.0101327 0)
(100.137 -0.0217447 0)
(100.094 -0.0262993 0)
(100.062 -0.0255196 0)
(100.038 -0.0208524 0)
(100.024 -0.0135257 0)
(100.016 -0.00466895 0)
(100.072 -0.0117536 0)
(100.067 -0.0350274 0)
(100.056 -0.057518 0)
(100.04 -0.0786345 0)
(100.018 -0.0977532 0)
(99.9879 -0.114123 0)
(99.949 -0.126854 0)
(99.8995 -0.13486 0)
(99.8371 -0.136793 0)
(99.759 -0.13096 0)
(99.6618 -0.115214 0)
(99.5412 -0.0867553 0)
(99.3922 -0.0419895 0)
(99.2087 0.0232831 0)
(98.9826 0.119237 0)
(98.8066 0.25551 0)
(98.4986 0.432197 0)
(98.1264 0.679217 0)
(97.7821 1.00655 0)
(97.3533 1.45814 0)
(96.8255 2.12095 0)
(96.3323 3.06582 0)
(96.0198 4.45611 0)
(96.3608 6.35641 0)
(98.0412 8.13111 0)
(100.618 8.41967 0)
(102.557 7.22084 0)
(103.408 5.60325 0)
(103.529 4.17322 0)
(103.325 3.00072 0)
(102.93 2.06195 0)
(102.469 1.47708 0)
(102.044 1.04862 0)
(101.635 0.629455 0)
(101.315 0.423623 0)
(101.048 0.273639 0)
(100.827 0.163915 0)
(100.646 0.0845128 0)
(100.498 0.0284958 0)
(100.377 -0.00950257 0)
(100.28 -0.0335409 0)
(100.202 -0.0467399 0)
(100.141 -0.0515468 0)
(100.093 -0.0499118 0)
(100.057 -0.0434198 0)
(100.032 -0.0333963 0)
(100.015 -0.0209553 0)
(100.007 -0.00712824 0)
(100.093 -0.0140322 0)
(100.088 -0.0419093 0)
(100.076 -0.0691362 0)
(100.059 -0.0952159 0)
(100.035 -0.119634 0)
(100.002 -0.141762 0)
(99.9603 -0.160858 0)
(99.9066 -0.176015 0)
(99.8388 -0.186104 0)
(99.7538 -0.18971 0)
(99.6478 -0.185035 0)
(99.5159 -0.169725 0)
(99.3524 -0.140692 0)
(99.15 -0.0948911 0)
(98.8986 -0.0215862 0)
(98.6902 0.100367 0)
(98.3362 0.245562 0)
(97.8999 0.453264 0)
(97.4686 0.750844 0)
(96.9083 1.16581 0)
(96.1796 1.78164 0)
(95.3419 2.7228 0)
(94.4138 4.34344 0)
(94.0081 7.29902 0)
(96.4875 11.1838 0)
(101.563 11.4566 0)
(104.368 8.73883 0)
(105 6.10179 0)
(104.715 4.19959 0)
(104.156 2.81946 0)
(103.508 1.82594 0)
(102.882 1.25074 0)
(102.342 0.84597 0)
(101.826 0.448578 0)
(101.453 0.270247 0)
(101.148 0.145487 0)
(100.899 0.0565495 0)
(100.697 -0.0053736 0)
(100.532 -0.0466225 0)
(100.399 -0.0720877 0)
(100.292 -0.0853839 0)
(100.207 -0.0892682 0)
(100.139 -0.0858874 0)
(100.087 -0.0769416 0)
(100.048 -0.0638056 0)
(100.02 -0.0476278 0)
(100.002 -0.0293638 0)
(99.993 -0.00990839 0)
(100.118 -0.0164616 0)
(100.112 -0.0492509 0)
(100.101 -0.0815468 0)
(100.082 -0.112964 0)
(100.057 -0.143117 0)
(100.022 -0.171526 0)
(99.9774 -0.197626 0)
(99.9204 -0.220728 0)
(99.8483 -0.239979 0)
(99.7578 -0.254308 0)
(99.6448 -0.26237 0)
(99.5039 -0.262409 0)
(99.3286 -0.252019 0)
(99.111 -0.229702 0)
(98.8393 -0.18449 0)
(98.6016 -0.0847202 0)
(98.2094 0.017261 0)
(97.7193 0.167236 0)
(97.2097 0.40718 0)
(96.5297 0.736618 0)
(95.6286 1.20492 0)
(94.4155 1.93811 0)
(92.6056 3.30112 0)
(89.7351 6.83393 0)
(91.8684 18.0171 0)
(104.936 16.4536 0)
(107.678 9.94546 0)
(107.179 6.04491 0)
(106.094 3.80491 0)
(105.016 2.35941 0)
(104.053 1.4081 0)
(103.26 0.906663 0)
(102.606 0.563316 0)
(101.984 0.218321 0)
(101.565 0.0810586 0)
(101.227 -0.00883259 0)
(100.953 -0.0703727 0)
(100.732 -0.11002 0)
(100.554 -0.133001 0)
(100.41 -0.143325 0)
(100.295 -0.143896 0)
(100.203 -0.136932 0)
(100.131 -0.124153 0)
(100.075 -0.106921 0)
(100.033 -0.0863339 0)
(100.003 -0.0633128 0)
(99.9836 -0.038615 0)
(99.9742 -0.0129647 0)
(100.148 -0.0190054 0)
(100.142 -0.0569415 0)
(100.129 -0.0945588 0)
(100.11 -0.131598 0)
(100.084 -0.167817 0)
(100.048 -0.202902 0)
(100.001 -0.236489 0)
(99.9417 -0.268137 0)
(99.8665 -0.297306 0)
(99.7721 -0.323322 0)
(99.6541 -0.345367 0)
(99.5069 -0.36239 0)
(99.3234 -0.372783 0)
(99.0954 -0.376875 0)
(98.8098 -0.363811 0)
(98.5482 -0.292945 0)
(98.1292 -0.243038 0)
(97.6021 -0.16456 0)
(97.0346 -0.00522746 0)
(96.272 0.198414 0)
(95.2725 0.444726 0)
(93.8456 0.774041 0)
(91.5633 1.1685 0)
(86.4531 0.994689 0)
(116.269 20.096 0)
(112.635 9.1493 0)
(109.65 4.89097 0)
(107.454 2.82069 0)
(105.783 1.57941 0)
(104.49 0.811252 0)
(103.561 0.45108 0)
(102.81 0.207867 0)
(102.096 -0.0536941 0)
(101.64 -0.137869 0)
(101.277 -0.184652 0)
(100.985 -0.213245 0)
(100.749 -0.226625 0)
(100.56 -0.228462 0)
(100.408 -0.221518 0)
(100.287 -0.207759 0)
(100.19 -0.188711 0)
(100.115 -0.165563 0)
(100.056 -0.139262 0)
(100.012 -0.110577 0)
(99.9802 -0.0801611 0)
(99.96 -0.0485407 0)
(99.9501 -0.0162422 0)
(100.181 -0.0216231 0)
(100.175 -0.0648573 0)
(100.163 -0.107959 0)
(100.143 -0.150803 0)
(100.116 -0.1933 0)
(100.079 -0.235313 0)
(100.032 -0.276694 0)
(99.9708 -0.317265 0)
(99.894 -0.356819 0)
(99.7975 -0.395111 0)
(99.6768 -0.43188 0)
(99.5263 -0.466843 0)
(99.3387 -0.499231 0)
(99.1055 -0.531303 0)
(98.8132 -0.552657 0)
(98.5351 -0.515474 0)
(98.1029 -0.52236 0)
(97.5593 -0.522044 0)
(96.9611 -0.455967 0)
(96.1676 -0.395773 0)
(95.1689 -0.385908 0)
(93.7754 -0.465353 0)
(91.8744 -0.885468 0)
(89.9139 -2.75299 0)
(128.439 9.84268 0)
(116.951 4.80305 0)
(111.588 2.41658 0)
(108.45 1.24181 0)
(106.301 0.515557 0)
(104.756 0.0715623 0)
(103.744 -0.0916952 0)
(102.931 -0.202721 0)
(102.149 -0.354877 0)
(101.672 -0.37738 0)
(101.293 -0.375375 0)
(100.99 -0.3672 0)
(100.746 -0.351549 0)
(100.55 -0.330261 0)
(100.393 -0.304581 0)
(100.268 -0.275379 0)
(100.168 -0.243388 0)
(100.09 -0.209193 0)
(100.029 -0.173275 0)
(99.9838 -0.136038 0)
(99.9514 -0.0978365 0)
(99.9305 -0.0589466 0)
(99.9203 -0.0196774 0)
(100.22 -0.0242716 0)
(100.214 -0.0728663 0)
(100.201 -0.121519 0)
(100.181 -0.170242 0)
(100.154 -0.219104 0)
(100.117 -0.268145 0)
(100.069 -0.317436 0)
(100.008 -0.367065 0)
(99.9311 -0.417163 0)
(99.8343 -0.467914 0)
(99.7133 -0.519607 0)
(99.5626 -0.572737 0)
(99.375 -0.627328 0)
(99.1422 -0.687502 0)
(98.8508 -0.743609 0)
(98.5641 -0.742507 0)
(98.1329 -0.806406 0)
(97.5932 -0.883476 0)
(96.9926 -0.911721 0)
(96.216 -0.988655 0)
(95.2909 -1.17706 0)
(94.0599 -1.52797 0)
(92.6247 -2.18673 0)
(91.5374 -3.29086 0)
(128.474 -3.82519 0)
(117.909 -1.32739 0)
(112.177 -0.816298 0)
(108.774 -0.685908 0)
(106.447 -0.706399 0)
(104.802 -0.739049 0)
(103.782 -0.679841 0)
(102.952 -0.641866 0)
(102.136 -0.668975 0)
(101.655 -0.626054 0)
(101.273 -0.573007 0)
(100.966 -0.526469 0)
(100.72 -0.48056 0)
(100.522 -0.435254 0)
(100.363 -0.39015 0)
(100.236 -0.344971 0)
(100.136 -0.299611 0)
(100.056 -0.254023 0)
(99.9951 -0.208203 0)
(99.949 -0.16217 0)
(99.9161 -0.115971 0)
(99.895 -0.0696205 0)
(99.8846 -0.0232008 0)
(100.262 -0.0269063 0)
(100.256 -0.0808326 0)
(100.244 -0.135005 0)
(100.225 -0.189572 0)
(100.197 -0.244754 0)
(100.161 -0.300767 0)
(100.114 -0.357892 0)
(100.054 -0.416474 0)
(99.9778 -0.476964 0)
(99.8825 -0.539949 0)
(99.7636 -0.606233 0)
(99.6157 -0.677031 0)
(99.4321 -0.753069 0)
(99.2048 -0.840083 0)
(98.9215 -0.929448 0)
(98.6343 -0.964417 0)
(98.217 -1.08158 0)
(97.6992 -1.22929 0)
(97.1198 -1.34407 0)
(96.3939 -1.53795 0)
(95.5662 -1.87603 0)
(94.5146 -2.38202 0)
(93.33 -3.09585 0)
(92.3468 -3.94387 0)
(122.356 -12.3879 0)
(115.752 -6.50356 0)
(111.297 -3.86007 0)
(108.347 -2.57315 0)
(106.188 -1.91017 0)
(104.618 -1.53352 0)
(103.667 -1.26233 0)
(102.87 -1.07849 0)
(102.058 -0.978315 0)
(101.589 -0.871583 0)
(101.215 -0.768982 0)
(100.914 -0.684897 0)
(100.671 -0.609171 0)
(100.476 -0.540123 0)
(100.318 -0.475742 0)
(100.193 -0.414662 0)
(100.093 -0.355966 0)
(100.014 -0.298991 0)
(99.953 -0.243256 0)
(99.9071 -0.188405 0)
(99.8744 -0.134182 0)
(99.8533 -0.0803414 0)
(99.843 -0.0267402 0)
(100.309 -0.0294833 0)
(100.304 -0.0886225 0)
(100.291 -0.148187 0)
(100.273 -0.208454 0)
(100.246 -0.269786 0)
(100.211 -0.332565 0)
(100.165 -0.397264 0)
(100.107 -0.464462 0)
(100.034 -0.534898 0)
(99.9417 -0.609516 0)
(99.8271 -0.689562 0)
(99.6848 -0.776881 0)
(99.5087 -0.872754 0)
(99.2916 -0.984166 0)
(99.0225 -1.10374 0)
(98.7422 -1.17266 0)
(98.3494 -1.33637 0)
(97.8675 -1.54408 0)
(97.3272 -1.73262 0)
(96.6724 -2.01962 0)
(95.9513 -2.46752 0)
(95.061 -3.07674 0)
(94.0134 -3.861 0)
(93.0194 -4.76115 0)
(114.968 -16.2132 0)
(112.059 -9.61371 0)
(109.421 -6.05529 0)
(107.326 -4.0878 0)
(105.586 -2.93499 0)
(104.237 -2.23347 0)
(103.416 -1.79103 0)
(102.691 -1.48284 0)
(101.918 -1.26636 0)
(101.477 -1.10234 0)
(101.122 -0.955109 0)
(100.834 -0.836538 0)
(100.6 -0.73302 0)
(100.411 -0.641625 0)
(100.259 -0.558921 0)
(100.137 -0.48261 0)
(100.04 -0.411056 0)
(99.9627 -0.34304 0)
(99.9031 -0.277649 0)
(99.8583 -0.214179 0)
(99.8262 -0.152088 0)
(99.8056 -0.0908891 0)
(99.7955 -0.0302238 0)
(100.361 -0.0319608 0)
(100.355 -0.0961085 0)
(100.344 -0.160845 0)
(100.326 -0.226566 0)
(100.301 -0.293763 0)
(100.267 -0.362962 0)
(100.224 -0.434807 0)
(100.168 -0.510077 0)
(100.098 -0.589754 0)
(100.011 -0.675079 0)
(99.9027 -0.767641 0)
(99.7684 -0.869793 0)
(99.6029 -0.983206 0)
(99.3997 -1.11568 0)
(99.1497 -1.26122 0)
(98.8825 -1.36034 0)
(98.5222 -1.56198 0)
(98.086 -1.8169 0)
(97.597 -2.06417 0)
(97.0255 -2.42117 0)
(96.4187 -2.9481 0)
(95.6859 -3.64028 0)
(94.7864 -4.53408 0)
(93.9903 -5.71255 0)
(108.548 -28.2575 0)
(108.102 -16.4199 0)
(108.154 -10.683 0)
(107.176 -7.2081 0)
(105.989 -5.06957 0)
(104.766 -3.68411 0)
(103.721 -2.78556 0)
(103.06 -2.23051 0)
(102.435 -1.83155 0)
(101.727 -1.51991 0)
(101.326 -1.30875 0)
(100.998 -1.12442 0)
(100.729 -0.976204 0)
(100.51 -0.84823 0)
(100.331 -0.736829 0)
(100.186 -0.637456 0)
(100.07 -0.547109 0)
(99.9766 -0.463578 0)
(99.903 -0.385181 0)
(99.8458 -0.310642 0)
(99.8026 -0.238954 0)
(99.7718 -0.169326 0)
(99.7519 -0.101053 0)
(99.7422 -0.0335826 0)
(100.416 -0.0343005 0)
(100.411 -0.103174 0)
(100.4 -0.172781 0)
(100.383 -0.243619 0)
(100.36 -0.316289 0)
(100.329 -0.391442 0)
(100.288 -0.469861 0)
(100.236 -0.552487 0)
(100.171 -0.640489 0)
(100.09 -0.735332 0)
(99.989 -0.838845 0)
(99.8647 -0.953742 0)
(99.712 -1.08192 0)
(99.5255 -1.23154 0)
(99.2981 -1.39805 0)
(99.0488 -1.52246 0)
(98.7261 -1.75243 0)
(98.3414 -2.04091 0)
(97.9116 -2.33092 0)
(97.4301 -2.73538 0)
(96.9448 -3.31332 0)
(96.3853 -4.06587 0)
(95.6751 -5.0696 0)
(95.0696 -6.15187 0)
(96.1115 -18.5208 -3.65823e-33)
(103.2 -14.0176 0)
(104.922 -10.2371 0)
(105.067 -7.46473 0)
(104.606 -5.52822 0)
(103.864 -4.13643 0)
(103.139 -3.17405 0)
(102.639 -2.56303 0)
(102.124 -2.11052 0)
(101.499 -1.73031 0)
(101.143 -1.48418 0)
(100.848 -1.27177 0)
(100.603 -1.09986 0)
(100.402 -0.951681 0)
(100.236 -0.823308 0)
(100.101 -0.709453 0)
(99.9924 -0.606686 0)
(99.9048 -0.512386 0)
(99.8354 -0.424534 0)
(99.7814 -0.34157 0)
(99.7406 -0.262247 0)
(99.7114 -0.185567 0)
(99.6926 -0.110643 0)
(99.6834 -0.036754 0)
(100.475 -0.0364687 0)
(100.47 -0.109717 0)
(100.461 -0.183818 0)
(100.445 -0.259357 0)
(100.424 -0.337023 0)
(100.395 -0.417564 0)
(100.358 -0.501869 0)
(100.31 -0.590999 0)
(100.251 -0.686252 0)
(100.176 -0.78924 0)
(100.084 -0.901925 0)
(99.9714 -1.02723 0)
(99.8331 -1.16713 0)
(99.6651 -1.3297 0)
(99.4622 -1.51184 0)
(99.234 -1.65601 0)
(98.9512 -1.90453 0)
(98.6202 -2.21297 0)
(98.2529 -2.52946 0)
(97.8635 -2.95865 0)
(97.5033 -3.55614 0)
(97.1244 -4.33184 0)
(96.6963 -5.40946 0)
(96.5722 -7.10335 0)
(96.7439 -11.304 0)
(100.869 -10.9874 0)
(102.732 -9.05394 0)
(103.369 -7.13961 0)
(103.363 -5.58097 0)
(102.987 -4.32842 0)
(102.544 -3.40431 0)
(102.19 -2.7877 0)
(101.783 -2.31533 0)
(101.246 -1.89377 0)
(100.94 -1.62514 0)
(100.68 -1.39402 0)
(100.461 -1.20484 0)
(100.28 -1.04116 0)
(100.129 -0.899249 0)
(100.006 -0.773445 0)
(99.9058 -0.660163 0)
(99.825 -0.556546 0)
(99.7607 -0.460364 0)
(99.7106 -0.36987 0)
(99.6727 -0.283643 0)
(99.6455 -0.200526 0)
(99.628 -0.119492 0)
(99.6194 -0.0396832 0)
(100.538 -0.038437 0)
(100.534 -0.115652 0)
(100.525 -0.193813 0)
(100.511 -0.273574 0)
(100.492 -0.355689 0)
(100.466 -0.440975 0)
(100.432 -0.530397 0)
(100.39 -0.625086 0)
(100.336 -0.726415 0)
(100.27 -0.836068 0)
(100.187 -0.956037 0)
(100.086 -1.08932 0)
(99.9632 -1.23782 0)
(99.8144 -1.40917 0)
(99.6366 -1.60163 0)
(99.4311 -1.75985 0)
(99.1882 -2.01766 0)
(98.9096 -2.33339 0)
(98.604 -2.6608 0)
(98.3024 -3.09258 0)
(98.0609 -3.67571 0)
(97.8539 -4.41786 0)
(97.7461 -5.40701 0)
(98.7255 -6.83216 0)
(98.0773 -8.38738 0)
(100.094 -8.66972 0)
(101.432 -7.77524 0)
(102.133 -6.54684 0)
(102.34 -5.37735 0)
(102.22 -4.34118 0)
(101.977 -3.50017 0)
(101.744 -2.91479 0)
(101.433 -2.44936 0)
(100.983 -2.01067 0)
(100.724 -1.73109 0)
(100.499 -1.49004 0)
(100.308 -1.28984 0)
(100.147 -1.11542 0)
(100.013 -0.963504 0)
(99.9023 -0.828434 0)
(99.8117 -0.706695 0)
(99.7384 -0.595357 0)
(99.6799 -0.492109 0)
(99.6342 -0.395101 0)
(99.5996 -0.302809 0)
(99.5747 -0.213973 0)
(99.5586 -0.127465 0)
(99.5508 -0.0423256 0)
(100.604 -0.0401834 0)
(100.6 -0.120911 0)
(100.592 -0.202653 0)
(100.58 -0.28611 0)
(100.563 -0.372077 0)
(100.541 -0.461417 0)
(100.511 -0.555132 0)
(100.474 -0.654386 0)
(100.427 -0.76057 0)
(100.368 -0.875373 0)
(100.295 -1.00073 0)
(100.207 -1.13958 0)
(100.099 -1.29367 0)
(99.9695 -1.46989 0)
(99.8162 -1.6677 0)
(99.6337 -1.83452 0)
(99.4284 -2.09345 0)
(99.1981 -2.40564 0)
(98.9493 -2.73035 0)
(98.7253 -3.1457 0)
(98.5835 -3.68557 0)
(98.5116 -4.34309 0)
(98.5827 -5.13877 0)
(99.5909 -6.10611 0)
(98.8301 -6.87512 0)
(99.8551 -7.11209 0)
(100.695 -6.67639 0)
(101.278 -5.9027 0)
(101.55 -5.05992 0)
(101.571 -4.22845 0)
(101.464 -3.49388 0)
(101.323 -2.96112 0)
(101.091 -2.52108 0)
(100.719 -2.08455 0)
(100.504 -1.80373 0)
(100.313 -1.56031 0)
(100.148 -1.35476 0)
(100.008 -1.17405 0)
(99.89 -1.01556 0)
(99.7921 -0.873884 0)
(99.7116 -0.745774 0)
(99.6462 -0.628368 0)
(99.5939 -0.519382 0)
(99.5529 -0.416949 0)
(99.5218 -0.319505 0)
(99.4995 -0.225737 0)
(99.485 -0.134459 0)
(99.4779 -0.0446473 0)
(100.672 -0.0416918 0)
(100.669 -0.125448 0)
(100.662 -0.210259 0)
(100.652 -0.296853 0)
(100.638 -0.386048 0)
(100.618 -0.478721 0)
(100.593 -0.575885 0)
(100.561 -0.678697 0)
(100.52 -0.788519 0)
(100.47 -0.906988 0)
(100.407 -1.03591 0)
(100.331 -1.17806 0)
(100.238 -1.33497 0)
(100.127 -1.51256 0)
(99.9965 -1.71136 0)
(99.8361 -1.88191 0)
(99.6647 -2.13529 0)
(99.4766 -2.43554 0)
(99.277 -2.747 0)
(99.1161 -3.13251 0)
(99.0475 -3.61213 0)
(99.0584 -4.16497 0)
(99.191 -4.77298 0)
(99.3057 -5.3636 0)
(99.2644 -5.87976 0)
(99.7764 -6.03395 0)
(100.27 -5.79961 0)
(100.696 -5.30281 0)
(100.953 -4.69702 0)
(101.038 -4.04057 0)
(101.015 -3.41657 0)
(100.938 -2.94544 0)
(100.768 -2.54145 0)
(100.463 -2.12082 0)
(100.286 -1.84632 0)
(100.125 -1.60657 0)
(99.9848 -1.40046 0)
(99.8645 -1.21741 0)
(99.7626 -1.05545 0)
(99.6774 -0.90967 0)
(99.607 -0.777201 0)
(99.5497 -0.655357 0)
(99.5037 -0.541969 0)
(99.4677 -0.435225 0)
(99.4402 -0.333577 0)
(99.4205 -0.235706 0)
(99.4078 -0.140408 0)
(99.4015 -0.0466254 0)
(100.743 -0.0429526 0)
(100.74 -0.129233 0)
(100.735 -0.216584 0)
(100.727 -0.305743 0)
(100.715 -0.397528 0)
(100.699 -0.492811 0)
(100.678 -0.592585 0)
(100.651 -0.69797 0)
(100.617 -0.810259 0)
(100.574 -0.930991 0)
(100.521 -1.0618 0)
(100.456 -1.20519 0)
(100.378 -1.36248 0)
(100.284 -1.5385 0)
(100.174 -1.73465 0)
(100.034 -1.90485 0)
(99.8916 -2.14772 0)
(99.7385 -2.43026 0)
(99.5791 -2.72149 0)
(99.4658 -3.06999 0)
(99.4445 -3.48461 0)
(99.4948 -3.93717 0)
(99.6292 -4.397 0)
(98.4299 -4.71386 0)
(99.5295 -5.14511 0)
(99.7475 -5.24418 0)
(100.009 -5.10455 0)
(100.296 -4.77181 0)
(100.504 -4.3317 0)
(100.607 -3.81658 0)
(100.63 -3.29426 0)
(100.595 -2.88522 0)
(100.471 -2.52177 0)
(100.221 -2.12574 0)
(100.075 -1.86293 0)
(99.9405 -1.63132 0)
(99.8224 -1.42848 0)
(99.7202 -1.24638 0)
(99.6331 -1.08367 0)
(99.5601 -0.936027 0)
(99.4995 -0.801056 0)
(99.4501 -0.676314 0)
(99.4104 -0.559818 0)
(99.3793 -0.44986 0)
(99.3556 -0.344958 0)
(99.3385 -0.243826 0)
(99.3275 -0.145275 0)
(99.3221 -0.0482481 0)
(100.816 -0.043962 0)
(100.814 -0.132256 0)
(100.81 -0.221612 0)
(100.803 -0.312763 0)
(100.794 -0.406507 0)
(100.781 -0.503691 0)
(100.764 -0.605266 0)
(100.742 -0.712288 0)
(100.715 -0.825953 0)
(100.68 -0.947667 0)
(100.636 -1.07885 0)
(100.582 -1.22172 0)
(100.516 -1.37733 0)
(100.437 -1.54942 0)
(100.345 -1.74008 0)
(100.223 -1.90673 0)
(100.105 -2.13577 0)
(99.9802 -2.39726 0)
(99.8519 -2.66454 0)
(99.772 -2.97406 0)
(99.7772 -3.32695 0)
(99.8385 -3.69369 0)
(99.9521 -4.04447 0)
(97.4078 -4.17443 0)
(99.6993 -4.57212 0)
(99.7346 -4.63689 0)
(99.8379 -4.54571 0)
(100.012 -4.31295 0)
(100.165 -3.98705 0)
(100.262 -3.58128 0)
(100.305 -3.14645 0)
(100.294 -2.79506 0)
(100.201 -2.47242 0)
(99.9942 -2.10559 0)
(99.8745 -1.85793 0)
(99.762 -1.63748 0)
(99.6631 -1.44079 0)
(99.577 -1.26226 0)
(99.5035 -1.10102 0)
(99.4417 -0.953461 0)
(99.3905 -0.81764 0)
(99.3486 -0.691411 0)
(99.315 -0.573015 0)
(99.2886 -0.460893 0)
(99.2685 -0.35366 0)
(99.2541 -0.250095 0)
(99.2448 -0.149057 0)
(99.2402 -0.0495132 0)
(100.89 -0.0447215 0)
(100.888 -0.134522 0)
(100.885 -0.225358 0)
(100.881 -0.317938 0)
(100.874 -0.413029 0)
(100.864 -0.511437 0)
(100.852 -0.61405 0)
(100.835 -0.721843 0)
(100.813 -0.835894 0)
(100.785 -0.957454 0)
(100.75 -1.08772 0)
(100.706 -1.22859 0)
(100.652 -1.38086 0)
(100.586 -1.54723 0)
(100.509 -1.73031 0)
(100.403 -1.89107 0)
(100.304 -2.10441 0)
(100.2 -2.34351 0)
(100.095 -2.58568 0)
(100.037 -2.8576 0)
(100.053 -3.15584 0)
(100.109 -3.45286 0)
(100.198 -3.72511 0)
(96.4909 -3.73466 0)