/*--------------------------------*- C++ -*----------------------------------*\
| =========                 |                                                 |
| \\      /  F ield         | OpenFOAM: The Open Source CFD Toolbox           |
|  \\    /   O peration     | Version:  v2012                                 |
|   \\  /    A nd           | Website:  www.openfoam.com                      |
|    \\/     M anipulation  |                                                 |
\*---------------------------------------------------------------------------*/
FoamFile
{
    version     2.0;
    format      ascii;
    class       volVectorField;
    location    "0/beamfour";
    object      refW;
}
// * * * * * * * * * * * * * * * * * * * * * * * * * * * * * * * * * * * * * //

dimensions      [0 1 0 0 0 0 0];


internalField   nonuniform List<vector> 
60
(
(-0.00131234 0.0036714 -0.00444908)
(-0.00393701 0.0110142 -0.0133472)
(-0.00656167 0.018357 -0.0222454)
(-0.00918636 0.0256998 -0.0311436)
(-0.011811 0.0330426 -0.0400416)
(-0.0144357 0.0403853 -0.0489397)
(-0.0170604 0.0477282 -0.057838)
(-0.019685 0.0550709 -0.0667361)
(-0.0223097 0.0624137 -0.0756342)
(-0.0249344 0.0697566 -0.0845324)
(-0.027559 0.0770993 -0.0934305)
(-0.0301837 0.084442 -0.102329)
(-0.0328084 0.0917849 -0.111227)
(-0.035433 0.0991277 -0.120125)
(-0.0380577 0.10647 -0.129023)
(-0.0406824 0.113813 -0.137921)
(-0.0433071 0.121156 -0.146819)
(-0.0459317 0.128499 -0.155717)
(-0.0485564 0.135842 -0.164616)
(-0.0511811 0.143184 -0.173514)
(-0.0538057 0.150527 -0.182412)
(-0.0564304 0.15787 -0.19131)
(-0.0590551 0.165213 -0.200208)
(-0.0616797 0.172556 -0.209106)
(-0.0643044 0.179898 -0.218005)
(-0.0669291 0.187241 -0.226903)
(-0.0695537 0.194584 -0.235801)
(-0.0721784 0.201927 -0.244699)
(-0.0748031 0.20927 -0.253597)
(-0.0774278 0.216612 -0.262495)
(-0.0800525 0.223955 -0.271393)
(-0.0826771 0.231298 -0.280291)
(-0.0853018 0.238641 -0.28919)
(-0.0879265 0.245984 -0.298088)
(-0.0905511 0.253326 -0.306986)
(-0.0931758 0.260669 -0.315884)
(-0.0958005 0.268012 -0.324782)
(-0.098425 0.275354 -0.33368)
(-0.10105 0.282697 -0.342578)
(-0.103675 0.290041 -0.351477)
(-0.106299 0.297383 -0.360375)
(-0.108924 0.304725 -0.369272)
(-0.111549 0.312069 -0.378172)
(-0.114173 0.319411 -0.387069)
(-0.116798 0.326754 -0.395967)
(-0.119423 0.334097 -0.404866)
(-0.122047 0.34144 -0.413764)
(-0.124672 0.348782 -0.422661)
(-0.127297 0.356126 -0.43156)
(-0.129921 0.363468 -0.440458)
(-0.132546 0.37081 -0.449356)
(-0.135171 0.378154 -0.458255)
(-0.137795 0.385496 -0.467152)
(-0.14042 0.392839 -0.47605)
(-0.143045 0.400183 -0.484949)
(-0.145669 0.407525 -0.493847)
(-0.148294 0.414867 -0.502744)
(-0.150919 0.422211 -0.511644)
(-0.153543 0.429553 -0.520541)
(-0.156168 0.436896 -0.529439)
)
;

boundaryField
{
    left
    {
        type            calculated;
        value           uniform (-3.48144e-21 -5.04124e-22 6.10908e-22);
    }
    right
    {
        type            calculated;
        value           uniform (-0.15748 0.440567 -0.533889);
    }
    beam
    {
        type            empty;
    }
}


// ************************************************************************* //
